+ 0.1 0 1 cbr 500 ------- 0 0.0 1.0 0 0
- 0.1 0 1 cbr 500 ------- 0 0.0 1.0 0 0
+ 0.104 0 1 cbr 500 ------- 0 0.0 1.0 1 1
- 0.104 0 1 cbr 500 ------- 0 0.0 1.0 1 1
+ 0.108 0 1 cbr 500 ------- 0 0.0 1.0 2 2
- 0.108 0 1 cbr 500 ------- 0 0.0 1.0 2 2
+ 0.112 0 1 cbr 500 ------- 0 0.0 1.0 3 3
- 0.112 0 1 cbr 500 ------- 0 0.0 1.0 3 3
r 0.114 0 1 cbr 500 ------- 0 0.0 1.0 0 0
+ 0.116 0 1 cbr 500 ------- 0 0.0 1.0 4 4
- 0.116 0 1 cbr 500 ------- 0 0.0 1.0 4 4
r 0.118 0 1 cbr 500 ------- 0 0.0 1.0 1 1
+ 0.12 0 1 cbr 500 ------- 0 0.0 1.0 5 5
- 0.12 0 1 cbr 500 ------- 0 0.0 1.0 5 5
r 0.122 0 1 cbr 500 ------- 0 0.0 1.0 2 2
+ 0.124 0 1 cbr 500 ------- 0 0.0 1.0 6 6
- 0.124 0 1 cbr 500 ------- 0 0.0 1.0 6 6
r 0.126 0 1 cbr 500 ------- 0 0.0 1.0 3 3
+ 0.128 0 1 cbr 500 ------- 0 0.0 1.0 7 7
- 0.128 0 1 cbr 500 ------- 0 0.0 1.0 7 7
r 0.13 0 1 cbr 500 ------- 0 0.0 1.0 4 4
+ 0.132 0 1 cbr 500 ------- 0 0.0 1.0 8 8
- 0.132 0 1 cbr 500 ------- 0 0.0 1.0 8 8
r 0.134 0 1 cbr 500 ------- 0 0.0 1.0 5 5
+ 0.136 0 1 cbr 500 ------- 0 0.0 1.0 9 9
- 0.136 0 1 cbr 500 ------- 0 0.0 1.0 9 9
r 0.138 0 1 cbr 500 ------- 0 0.0 1.0 6 6
+ 0.14 0 1 cbr 500 ------- 0 0.0 1.0 10 10
- 0.14 0 1 cbr 500 ------- 0 0.0 1.0 10 10
r 0.142 0 1 cbr 500 ------- 0 0.0 1.0 7 7
+ 0.144 0 1 cbr 500 ------- 0 0.0 1.0 11 11
- 0.144 0 1 cbr 500 ------- 0 0.0 1.0 11 11
r 0.146 0 1 cbr 500 ------- 0 0.0 1.0 8 8
+ 0.148 0 1 cbr 500 ------- 0 0.0 1.0 12 12
- 0.148 0 1 cbr 500 ------- 0 0.0 1.0 12 12
r 0.15 0 1 cbr 500 ------- 0 0.0 1.0 9 9
+ 0.152 0 1 cbr 500 ------- 0 0.0 1.0 13 13
- 0.152 0 1 cbr 500 ------- 0 0.0 1.0 13 13
r 0.154 0 1 cbr 500 ------- 0 0.0 1.0 10 10
+ 0.156 0 1 cbr 500 ------- 0 0.0 1.0 14 14
- 0.156 0 1 cbr 500 ------- 0 0.0 1.0 14 14
r 0.158 0 1 cbr 500 ------- 0 0.0 1.0 11 11
+ 0.16 0 1 cbr 500 ------- 0 0.0 1.0 15 15
- 0.16 0 1 cbr 500 ------- 0 0.0 1.0 15 15
r 0.162 0 1 cbr 500 ------- 0 0.0 1.0 12 12
+ 0.164 0 1 cbr 500 ------- 0 0.0 1.0 16 16
- 0.164 0 1 cbr 500 ------- 0 0.0 1.0 16 16
r 0.166 0 1 cbr 500 ------- 0 0.0 1.0 13 13
+ 0.168 0 1 cbr 500 ------- 0 0.0 1.0 17 17
- 0.168 0 1 cbr 500 ------- 0 0.0 1.0 17 17
r 0.17 0 1 cbr 500 ------- 0 0.0 1.0 14 14
+ 0.172 0 1 cbr 500 ------- 0 0.0 1.0 18 18
- 0.172 0 1 cbr 500 ------- 0 0.0 1.0 18 18
r 0.174 0 1 cbr 500 ------- 0 0.0 1.0 15 15
+ 0.176 0 1 cbr 500 ------- 0 0.0 1.0 19 19
- 0.176 0 1 cbr 500 ------- 0 0.0 1.0 19 19
r 0.178 0 1 cbr 500 ------- 0 0.0 1.0 16 16
+ 0.18 0 1 cbr 500 ------- 0 0.0 1.0 20 20
- 0.18 0 1 cbr 500 ------- 0 0.0 1.0 20 20
r 0.182 0 1 cbr 500 ------- 0 0.0 1.0 17 17
+ 0.184 0 1 cbr 500 ------- 0 0.0 1.0 21 21
- 0.184 0 1 cbr 500 ------- 0 0.0 1.0 21 21
r 0.186 0 1 cbr 500 ------- 0 0.0 1.0 18 18
+ 0.188 0 1 cbr 500 ------- 0 0.0 1.0 22 22
- 0.188 0 1 cbr 500 ------- 0 0.0 1.0 22 22
r 0.19 0 1 cbr 500 ------- 0 0.0 1.0 19 19
+ 0.192 0 1 cbr 500 ------- 0 0.0 1.0 23 23
- 0.192 0 1 cbr 500 ------- 0 0.0 1.0 23 23
r 0.194 0 1 cbr 500 ------- 0 0.0 1.0 20 20
+ 0.196 0 1 cbr 500 ------- 0 0.0 1.0 24 24
- 0.196 0 1 cbr 500 ------- 0 0.0 1.0 24 24
r 0.198 0 1 cbr 500 ------- 0 0.0 1.0 21 21
+ 0.2 0 1 cbr 500 ------- 0 0.0 1.0 25 25
- 0.2 0 1 cbr 500 ------- 0 0.0 1.0 25 25
r 0.202 0 1 cbr 500 ------- 0 0.0 1.0 22 22
+ 0.204 0 1 cbr 500 ------- 0 0.0 1.0 26 26
- 0.204 0 1 cbr 500 ------- 0 0.0 1.0 26 26
r 0.206 0 1 cbr 500 ------- 0 0.0 1.0 23 23
+ 0.208 0 1 cbr 500 ------- 0 0.0 1.0 27 27
- 0.208 0 1 cbr 500 ------- 0 0.0 1.0 27 27
r 0.21 0 1 cbr 500 ------- 0 0.0 1.0 24 24
+ 0.212 0 1 cbr 500 ------- 0 0.0 1.0 28 28
- 0.212 0 1 cbr 500 ------- 0 0.0 1.0 28 28
r 0.214 0 1 cbr 500 ------- 0 0.0 1.0 25 25
+ 0.216 0 1 cbr 500 ------- 0 0.0 1.0 29 29
- 0.216 0 1 cbr 500 ------- 0 0.0 1.0 29 29
r 0.218 0 1 cbr 500 ------- 0 0.0 1.0 26 26
+ 0.22 0 1 cbr 500 ------- 0 0.0 1.0 30 30
- 0.22 0 1 cbr 500 ------- 0 0.0 1.0 30 30
r 0.222 0 1 cbr 500 ------- 0 0.0 1.0 27 27
+ 0.224 0 1 cbr 500 ------- 0 0.0 1.0 31 31
- 0.224 0 1 cbr 500 ------- 0 0.0 1.0 31 31
r 0.226 0 1 cbr 500 ------- 0 0.0 1.0 28 28
+ 0.228 0 1 cbr 500 ------- 0 0.0 1.0 32 32
- 0.228 0 1 cbr 500 ------- 0 0.0 1.0 32 32
r 0.23 0 1 cbr 500 ------- 0 0.0 1.0 29 29
+ 0.232 0 1 cbr 500 ------- 0 0.0 1.0 33 33
- 0.232 0 1 cbr 500 ------- 0 0.0 1.0 33 33
r 0.234 0 1 cbr 500 ------- 0 0.0 1.0 30 30
+ 0.236 0 1 cbr 500 ------- 0 0.0 1.0 34 34
- 0.236 0 1 cbr 500 ------- 0 0.0 1.0 34 34
r 0.238 0 1 cbr 500 ------- 0 0.0 1.0 31 31
+ 0.24 0 1 cbr 500 ------- 0 0.0 1.0 35 35
- 0.24 0 1 cbr 500 ------- 0 0.0 1.0 35 35
r 0.242 0 1 cbr 500 ------- 0 0.0 1.0 32 32
+ 0.244 0 1 cbr 500 ------- 0 0.0 1.0 36 36
- 0.244 0 1 cbr 500 ------- 0 0.0 1.0 36 36
r 0.246 0 1 cbr 500 ------- 0 0.0 1.0 33 33
+ 0.248 0 1 cbr 500 ------- 0 0.0 1.0 37 37
- 0.248 0 1 cbr 500 ------- 0 0.0 1.0 37 37
r 0.25 0 1 cbr 500 ------- 0 0.0 1.0 34 34
+ 0.252 0 1 cbr 500 ------- 0 0.0 1.0 38 38
- 0.252 0 1 cbr 500 ------- 0 0.0 1.0 38 38
r 0.254 0 1 cbr 500 ------- 0 0.0 1.0 35 35
+ 0.256 0 1 cbr 500 ------- 0 0.0 1.0 39 39
- 0.256 0 1 cbr 500 ------- 0 0.0 1.0 39 39
r 0.258 0 1 cbr 500 ------- 0 0.0 1.0 36 36
+ 0.26 0 1 cbr 500 ------- 0 0.0 1.0 40 40
- 0.26 0 1 cbr 500 ------- 0 0.0 1.0 40 40
r 0.262 0 1 cbr 500 ------- 0 0.0 1.0 37 37
+ 0.264 0 1 cbr 500 ------- 0 0.0 1.0 41 41
- 0.264 0 1 cbr 500 ------- 0 0.0 1.0 41 41
r 0.266 0 1 cbr 500 ------- 0 0.0 1.0 38 38
+ 0.268 0 1 cbr 500 ------- 0 0.0 1.0 42 42
- 0.268 0 1 cbr 500 ------- 0 0.0 1.0 42 42
r 0.27 0 1 cbr 500 ------- 0 0.0 1.0 39 39
+ 0.272 0 1 cbr 500 ------- 0 0.0 1.0 43 43
- 0.272 0 1 cbr 500 ------- 0 0.0 1.0 43 43
r 0.274 0 1 cbr 500 ------- 0 0.0 1.0 40 40
+ 0.276 0 1 cbr 500 ------- 0 0.0 1.0 44 44
- 0.276 0 1 cbr 500 ------- 0 0.0 1.0 44 44
r 0.278 0 1 cbr 500 ------- 0 0.0 1.0 41 41
+ 0.28 0 1 cbr 500 ------- 0 0.0 1.0 45 45
- 0.28 0 1 cbr 500 ------- 0 0.0 1.0 45 45
r 0.282 0 1 cbr 500 ------- 0 0.0 1.0 42 42
+ 0.284 0 1 cbr 500 ------- 0 0.0 1.0 46 46
- 0.284 0 1 cbr 500 ------- 0 0.0 1.0 46 46
r 0.286 0 1 cbr 500 ------- 0 0.0 1.0 43 43
+ 0.288 0 1 cbr 500 ------- 0 0.0 1.0 47 47
- 0.288 0 1 cbr 500 ------- 0 0.0 1.0 47 47
r 0.29 0 1 cbr 500 ------- 0 0.0 1.0 44 44
+ 0.292 0 1 cbr 500 ------- 0 0.0 1.0 48 48
- 0.292 0 1 cbr 500 ------- 0 0.0 1.0 48 48
r 0.294 0 1 cbr 500 ------- 0 0.0 1.0 45 45
+ 0.296 0 1 cbr 500 ------- 0 0.0 1.0 49 49
- 0.296 0 1 cbr 500 ------- 0 0.0 1.0 49 49
r 0.298 0 1 cbr 500 ------- 0 0.0 1.0 46 46
+ 0.3 0 1 cbr 500 ------- 0 0.0 1.0 50 50
- 0.3 0 1 cbr 500 ------- 0 0.0 1.0 50 50
r 0.302 0 1 cbr 500 ------- 0 0.0 1.0 47 47
+ 0.304 0 1 cbr 500 ------- 0 0.0 1.0 51 51
- 0.304 0 1 cbr 500 ------- 0 0.0 1.0 51 51
r 0.306 0 1 cbr 500 ------- 0 0.0 1.0 48 48
+ 0.308 0 1 cbr 500 ------- 0 0.0 1.0 52 52
- 0.308 0 1 cbr 500 ------- 0 0.0 1.0 52 52
r 0.31 0 1 cbr 500 ------- 0 0.0 1.0 49 49
+ 0.312 0 1 cbr 500 ------- 0 0.0 1.0 53 53
- 0.312 0 1 cbr 500 ------- 0 0.0 1.0 53 53
r 0.314 0 1 cbr 500 ------- 0 0.0 1.0 50 50
+ 0.316 0 1 cbr 500 ------- 0 0.0 1.0 54 54
- 0.316 0 1 cbr 500 ------- 0 0.0 1.0 54 54
r 0.318 0 1 cbr 500 ------- 0 0.0 1.0 51 51
+ 0.32 0 1 cbr 500 ------- 0 0.0 1.0 55 55
- 0.32 0 1 cbr 500 ------- 0 0.0 1.0 55 55
r 0.322 0 1 cbr 500 ------- 0 0.0 1.0 52 52
+ 0.324 0 1 cbr 500 ------- 0 0.0 1.0 56 56
- 0.324 0 1 cbr 500 ------- 0 0.0 1.0 56 56
r 0.326 0 1 cbr 500 ------- 0 0.0 1.0 53 53
+ 0.328 0 1 cbr 500 ------- 0 0.0 1.0 57 57
- 0.328 0 1 cbr 500 ------- 0 0.0 1.0 57 57
r 0.33 0 1 cbr 500 ------- 0 0.0 1.0 54 54
+ 0.332 0 1 cbr 500 ------- 0 0.0 1.0 58 58
- 0.332 0 1 cbr 500 ------- 0 0.0 1.0 58 58
r 0.334 0 1 cbr 500 ------- 0 0.0 1.0 55 55
+ 0.336 0 1 cbr 500 ------- 0 0.0 1.0 59 59
- 0.336 0 1 cbr 500 ------- 0 0.0 1.0 59 59
r 0.338 0 1 cbr 500 ------- 0 0.0 1.0 56 56
+ 0.34 0 1 cbr 500 ------- 0 0.0 1.0 60 60
- 0.34 0 1 cbr 500 ------- 0 0.0 1.0 60 60
r 0.342 0 1 cbr 500 ------- 0 0.0 1.0 57 57
+ 0.344 0 1 cbr 500 ------- 0 0.0 1.0 61 61
- 0.344 0 1 cbr 500 ------- 0 0.0 1.0 61 61
r 0.346 0 1 cbr 500 ------- 0 0.0 1.0 58 58
+ 0.348 0 1 cbr 500 ------- 0 0.0 1.0 62 62
- 0.348 0 1 cbr 500 ------- 0 0.0 1.0 62 62
r 0.35 0 1 cbr 500 ------- 0 0.0 1.0 59 59
+ 0.352 0 1 cbr 500 ------- 0 0.0 1.0 63 63
- 0.352 0 1 cbr 500 ------- 0 0.0 1.0 63 63
r 0.354 0 1 cbr 500 ------- 0 0.0 1.0 60 60
+ 0.356 0 1 cbr 500 ------- 0 0.0 1.0 64 64
- 0.356 0 1 cbr 500 ------- 0 0.0 1.0 64 64
r 0.358 0 1 cbr 500 ------- 0 0.0 1.0 61 61
+ 0.36 0 1 cbr 500 ------- 0 0.0 1.0 65 65
- 0.36 0 1 cbr 500 ------- 0 0.0 1.0 65 65
r 0.362 0 1 cbr 500 ------- 0 0.0 1.0 62 62
+ 0.364 0 1 cbr 500 ------- 0 0.0 1.0 66 66
- 0.364 0 1 cbr 500 ------- 0 0.0 1.0 66 66
r 0.366 0 1 cbr 500 ------- 0 0.0 1.0 63 63
+ 0.368 0 1 cbr 500 ------- 0 0.0 1.0 67 67
- 0.368 0 1 cbr 500 ------- 0 0.0 1.0 67 67
r 0.37 0 1 cbr 500 ------- 0 0.0 1.0 64 64
+ 0.372 0 1 cbr 500 ------- 0 0.0 1.0 68 68
- 0.372 0 1 cbr 500 ------- 0 0.0 1.0 68 68
r 0.374 0 1 cbr 500 ------- 0 0.0 1.0 65 65
+ 0.376 0 1 cbr 500 ------- 0 0.0 1.0 69 69
- 0.376 0 1 cbr 500 ------- 0 0.0 1.0 69 69
r 0.378 0 1 cbr 500 ------- 0 0.0 1.0 66 66
+ 0.38 0 1 cbr 500 ------- 0 0.0 1.0 70 70
- 0.38 0 1 cbr 500 ------- 0 0.0 1.0 70 70
r 0.382 0 1 cbr 500 ------- 0 0.0 1.0 67 67
+ 0.384 0 1 cbr 500 ------- 0 0.0 1.0 71 71
- 0.384 0 1 cbr 500 ------- 0 0.0 1.0 71 71
r 0.386 0 1 cbr 500 ------- 0 0.0 1.0 68 68
+ 0.388 0 1 cbr 500 ------- 0 0.0 1.0 72 72
- 0.388 0 1 cbr 500 ------- 0 0.0 1.0 72 72
r 0.39 0 1 cbr 500 ------- 0 0.0 1.0 69 69
+ 0.392 0 1 cbr 500 ------- 0 0.0 1.0 73 73
- 0.392 0 1 cbr 500 ------- 0 0.0 1.0 73 73
r 0.394 0 1 cbr 500 ------- 0 0.0 1.0 70 70
+ 0.396 0 1 cbr 500 ------- 0 0.0 1.0 74 74
- 0.396 0 1 cbr 500 ------- 0 0.0 1.0 74 74
r 0.398 0 1 cbr 500 ------- 0 0.0 1.0 71 71
+ 0.4 0 1 cbr 500 ------- 0 0.0 1.0 75 75
- 0.4 0 1 cbr 500 ------- 0 0.0 1.0 75 75
r 0.402 0 1 cbr 500 ------- 0 0.0 1.0 72 72
+ 0.404 0 1 cbr 500 ------- 0 0.0 1.0 76 76
- 0.404 0 1 cbr 500 ------- 0 0.0 1.0 76 76
r 0.406 0 1 cbr 500 ------- 0 0.0 1.0 73 73
+ 0.408 0 1 cbr 500 ------- 0 0.0 1.0 77 77
- 0.408 0 1 cbr 500 ------- 0 0.0 1.0 77 77
r 0.41 0 1 cbr 500 ------- 0 0.0 1.0 74 74
+ 0.412 0 1 cbr 500 ------- 0 0.0 1.0 78 78
- 0.412 0 1 cbr 500 ------- 0 0.0 1.0 78 78
r 0.414 0 1 cbr 500 ------- 0 0.0 1.0 75 75
+ 0.416 0 1 cbr 500 ------- 0 0.0 1.0 79 79
- 0.416 0 1 cbr 500 ------- 0 0.0 1.0 79 79
r 0.418 0 1 cbr 500 ------- 0 0.0 1.0 76 76
+ 0.42 0 1 cbr 500 ------- 0 0.0 1.0 80 80
- 0.42 0 1 cbr 500 ------- 0 0.0 1.0 80 80
r 0.422 0 1 cbr 500 ------- 0 0.0 1.0 77 77
+ 0.424 0 1 cbr 500 ------- 0 0.0 1.0 81 81
- 0.424 0 1 cbr 500 ------- 0 0.0 1.0 81 81
r 0.426 0 1 cbr 500 ------- 0 0.0 1.0 78 78
+ 0.428 0 1 cbr 500 ------- 0 0.0 1.0 82 82
- 0.428 0 1 cbr 500 ------- 0 0.0 1.0 82 82
r 0.43 0 1 cbr 500 ------- 0 0.0 1.0 79 79
+ 0.432 0 1 cbr 500 ------- 0 0.0 1.0 83 83
- 0.432 0 1 cbr 500 ------- 0 0.0 1.0 83 83
r 0.434 0 1 cbr 500 ------- 0 0.0 1.0 80 80
+ 0.436 0 1 cbr 500 ------- 0 0.0 1.0 84 84
- 0.436 0 1 cbr 500 ------- 0 0.0 1.0 84 84
r 0.438 0 1 cbr 500 ------- 0 0.0 1.0 81 81
+ 0.44 0 1 cbr 500 ------- 0 0.0 1.0 85 85
- 0.44 0 1 cbr 500 ------- 0 0.0 1.0 85 85
r 0.442 0 1 cbr 500 ------- 0 0.0 1.0 82 82
+ 0.444 0 1 cbr 500 ------- 0 0.0 1.0 86 86
- 0.444 0 1 cbr 500 ------- 0 0.0 1.0 86 86
r 0.446 0 1 cbr 500 ------- 0 0.0 1.0 83 83
+ 0.448 0 1 cbr 500 ------- 0 0.0 1.0 87 87
- 0.448 0 1 cbr 500 ------- 0 0.0 1.0 87 87
r 0.45 0 1 cbr 500 ------- 0 0.0 1.0 84 84
+ 0.452 0 1 cbr 500 ------- 0 0.0 1.0 88 88
- 0.452 0 1 cbr 500 ------- 0 0.0 1.0 88 88
r 0.454 0 1 cbr 500 ------- 0 0.0 1.0 85 85
+ 0.456 0 1 cbr 500 ------- 0 0.0 1.0 89 89
- 0.456 0 1 cbr 500 ------- 0 0.0 1.0 89 89
r 0.458 0 1 cbr 500 ------- 0 0.0 1.0 86 86
+ 0.46 0 1 cbr 500 ------- 0 0.0 1.0 90 90
- 0.46 0 1 cbr 500 ------- 0 0.0 1.0 90 90
r 0.462 0 1 cbr 500 ------- 0 0.0 1.0 87 87
+ 0.464 0 1 cbr 500 ------- 0 0.0 1.0 91 91
- 0.464 0 1 cbr 500 ------- 0 0.0 1.0 91 91
r 0.466 0 1 cbr 500 ------- 0 0.0 1.0 88 88
+ 0.468 0 1 cbr 500 ------- 0 0.0 1.0 92 92
- 0.468 0 1 cbr 500 ------- 0 0.0 1.0 92 92
r 0.47 0 1 cbr 500 ------- 0 0.0 1.0 89 89
+ 0.472 0 1 cbr 500 ------- 0 0.0 1.0 93 93
- 0.472 0 1 cbr 500 ------- 0 0.0 1.0 93 93
r 0.474 0 1 cbr 500 ------- 0 0.0 1.0 90 90
+ 0.476 0 1 cbr 500 ------- 0 0.0 1.0 94 94
- 0.476 0 1 cbr 500 ------- 0 0.0 1.0 94 94
r 0.478 0 1 cbr 500 ------- 0 0.0 1.0 91 91
+ 0.48 0 1 cbr 500 ------- 0 0.0 1.0 95 95
- 0.48 0 1 cbr 500 ------- 0 0.0 1.0 95 95
r 0.482 0 1 cbr 500 ------- 0 0.0 1.0 92 92
+ 0.484 0 1 cbr 500 ------- 0 0.0 1.0 96 96
- 0.484 0 1 cbr 500 ------- 0 0.0 1.0 96 96
r 0.486 0 1 cbr 500 ------- 0 0.0 1.0 93 93
+ 0.488 0 1 cbr 500 ------- 0 0.0 1.0 97 97
- 0.488 0 1 cbr 500 ------- 0 0.0 1.0 97 97
r 0.49 0 1 cbr 500 ------- 0 0.0 1.0 94 94
+ 0.492 0 1 cbr 500 ------- 0 0.0 1.0 98 98
- 0.492 0 1 cbr 500 ------- 0 0.0 1.0 98 98
r 0.494 0 1 cbr 500 ------- 0 0.0 1.0 95 95
+ 0.496 0 1 cbr 500 ------- 0 0.0 1.0 99 99
- 0.496 0 1 cbr 500 ------- 0 0.0 1.0 99 99
r 0.498 0 1 cbr 500 ------- 0 0.0 1.0 96 96
+ 0.5 0 1 cbr 500 ------- 0 0.0 1.0 100 100
- 0.5 0 1 cbr 500 ------- 0 0.0 1.0 100 100
r 0.502 0 1 cbr 500 ------- 0 0.0 1.0 97 97
+ 0.504 0 1 cbr 500 ------- 0 0.0 1.0 101 101
- 0.504 0 1 cbr 500 ------- 0 0.0 1.0 101 101
r 0.506 0 1 cbr 500 ------- 0 0.0 1.0 98 98
+ 0.508 0 1 cbr 500 ------- 0 0.0 1.0 102 102
- 0.508 0 1 cbr 500 ------- 0 0.0 1.0 102 102
r 0.51 0 1 cbr 500 ------- 0 0.0 1.0 99 99
+ 0.512 0 1 cbr 500 ------- 0 0.0 1.0 103 103
- 0.512 0 1 cbr 500 ------- 0 0.0 1.0 103 103
r 0.514 0 1 cbr 500 ------- 0 0.0 1.0 100 100
+ 0.516 0 1 cbr 500 ------- 0 0.0 1.0 104 104
- 0.516 0 1 cbr 500 ------- 0 0.0 1.0 104 104
r 0.518 0 1 cbr 500 ------- 0 0.0 1.0 101 101
+ 0.52 0 1 cbr 500 ------- 0 0.0 1.0 105 105
- 0.52 0 1 cbr 500 ------- 0 0.0 1.0 105 105
r 0.522 0 1 cbr 500 ------- 0 0.0 1.0 102 102
+ 0.524 0 1 cbr 500 ------- 0 0.0 1.0 106 106
- 0.524 0 1 cbr 500 ------- 0 0.0 1.0 106 106
r 0.526 0 1 cbr 500 ------- 0 0.0 1.0 103 103
+ 0.528 0 1 cbr 500 ------- 0 0.0 1.0 107 107
- 0.528 0 1 cbr 500 ------- 0 0.0 1.0 107 107
r 0.53 0 1 cbr 500 ------- 0 0.0 1.0 104 104
+ 0.532 0 1 cbr 500 ------- 0 0.0 1.0 108 108
- 0.532 0 1 cbr 500 ------- 0 0.0 1.0 108 108
r 0.534 0 1 cbr 500 ------- 0 0.0 1.0 105 105
+ 0.536 0 1 cbr 500 ------- 0 0.0 1.0 109 109
- 0.536 0 1 cbr 500 ------- 0 0.0 1.0 109 109
r 0.538 0 1 cbr 500 ------- 0 0.0 1.0 106 106
+ 0.54 0 1 cbr 500 ------- 0 0.0 1.0 110 110
- 0.54 0 1 cbr 500 ------- 0 0.0 1.0 110 110
r 0.542 0 1 cbr 500 ------- 0 0.0 1.0 107 107
+ 0.544 0 1 cbr 500 ------- 0 0.0 1.0 111 111
- 0.544 0 1 cbr 500 ------- 0 0.0 1.0 111 111
r 0.546 0 1 cbr 500 ------- 0 0.0 1.0 108 108
+ 0.548 0 1 cbr 500 ------- 0 0.0 1.0 112 112
- 0.548 0 1 cbr 500 ------- 0 0.0 1.0 112 112
r 0.55 0 1 cbr 500 ------- 0 0.0 1.0 109 109
+ 0.552 0 1 cbr 500 ------- 0 0.0 1.0 113 113
- 0.552 0 1 cbr 500 ------- 0 0.0 1.0 113 113
r 0.554 0 1 cbr 500 ------- 0 0.0 1.0 110 110
+ 0.556 0 1 cbr 500 ------- 0 0.0 1.0 114 114
- 0.556 0 1 cbr 500 ------- 0 0.0 1.0 114 114
r 0.558 0 1 cbr 500 ------- 0 0.0 1.0 111 111
+ 0.56 0 1 cbr 500 ------- 0 0.0 1.0 115 115
- 0.56 0 1 cbr 500 ------- 0 0.0 1.0 115 115
r 0.562 0 1 cbr 500 ------- 0 0.0 1.0 112 112
+ 0.564 0 1 cbr 500 ------- 0 0.0 1.0 116 116
- 0.564 0 1 cbr 500 ------- 0 0.0 1.0 116 116
r 0.566 0 1 cbr 500 ------- 0 0.0 1.0 113 113
+ 0.568 0 1 cbr 500 ------- 0 0.0 1.0 117 117
- 0.568 0 1 cbr 500 ------- 0 0.0 1.0 117 117
r 0.57 0 1 cbr 500 ------- 0 0.0 1.0 114 114
+ 0.572 0 1 cbr 500 ------- 0 0.0 1.0 118 118
- 0.572 0 1 cbr 500 ------- 0 0.0 1.0 118 118
r 0.574 0 1 cbr 500 ------- 0 0.0 1.0 115 115
+ 0.576 0 1 cbr 500 ------- 0 0.0 1.0 119 119
- 0.576 0 1 cbr 500 ------- 0 0.0 1.0 119 119
r 0.578 0 1 cbr 500 ------- 0 0.0 1.0 116 116
+ 0.58 0 1 cbr 500 ------- 0 0.0 1.0 120 120
- 0.58 0 1 cbr 500 ------- 0 0.0 1.0 120 120
r 0.582 0 1 cbr 500 ------- 0 0.0 1.0 117 117
+ 0.584 0 1 cbr 500 ------- 0 0.0 1.0 121 121
- 0.584 0 1 cbr 500 ------- 0 0.0 1.0 121 121
r 0.586 0 1 cbr 500 ------- 0 0.0 1.0 118 118
+ 0.588 0 1 cbr 500 ------- 0 0.0 1.0 122 122
- 0.588 0 1 cbr 500 ------- 0 0.0 1.0 122 122
r 0.59 0 1 cbr 500 ------- 0 0.0 1.0 119 119
+ 0.592 0 1 cbr 500 ------- 0 0.0 1.0 123 123
- 0.592 0 1 cbr 500 ------- 0 0.0 1.0 123 123
r 0.594 0 1 cbr 500 ------- 0 0.0 1.0 120 120
+ 0.596 0 1 cbr 500 ------- 0 0.0 1.0 124 124
- 0.596 0 1 cbr 500 ------- 0 0.0 1.0 124 124
r 0.598 0 1 cbr 500 ------- 0 0.0 1.0 121 121
+ 0.6 0 1 cbr 500 ------- 0 0.0 1.0 125 125
- 0.6 0 1 cbr 500 ------- 0 0.0 1.0 125 125
r 0.602 0 1 cbr 500 ------- 0 0.0 1.0 122 122
+ 0.604 0 1 cbr 500 ------- 0 0.0 1.0 126 126
- 0.604 0 1 cbr 500 ------- 0 0.0 1.0 126 126
r 0.606 0 1 cbr 500 ------- 0 0.0 1.0 123 123
+ 0.608 0 1 cbr 500 ------- 0 0.0 1.0 127 127
- 0.608 0 1 cbr 500 ------- 0 0.0 1.0 127 127
r 0.61 0 1 cbr 500 ------- 0 0.0 1.0 124 124
+ 0.612 0 1 cbr 500 ------- 0 0.0 1.0 128 128
- 0.612 0 1 cbr 500 ------- 0 0.0 1.0 128 128
r 0.614 0 1 cbr 500 ------- 0 0.0 1.0 125 125
+ 0.616 0 1 cbr 500 ------- 0 0.0 1.0 129 129
- 0.616 0 1 cbr 500 ------- 0 0.0 1.0 129 129
r 0.618 0 1 cbr 500 ------- 0 0.0 1.0 126 126
+ 0.62 0 1 cbr 500 ------- 0 0.0 1.0 130 130
- 0.62 0 1 cbr 500 ------- 0 0.0 1.0 130 130
r 0.622 0 1 cbr 500 ------- 0 0.0 1.0 127 127
+ 0.624 0 1 cbr 500 ------- 0 0.0 1.0 131 131
- 0.624 0 1 cbr 500 ------- 0 0.0 1.0 131 131
r 0.626 0 1 cbr 500 ------- 0 0.0 1.0 128 128
+ 0.628 0 1 cbr 500 ------- 0 0.0 1.0 132 132
- 0.628 0 1 cbr 500 ------- 0 0.0 1.0 132 132
r 0.63 0 1 cbr 500 ------- 0 0.0 1.0 129 129
+ 0.632 0 1 cbr 500 ------- 0 0.0 1.0 133 133
- 0.632 0 1 cbr 500 ------- 0 0.0 1.0 133 133
r 0.634 0 1 cbr 500 ------- 0 0.0 1.0 130 130
+ 0.636 0 1 cbr 500 ------- 0 0.0 1.0 134 134
- 0.636 0 1 cbr 500 ------- 0 0.0 1.0 134 134
r 0.638 0 1 cbr 500 ------- 0 0.0 1.0 131 131
+ 0.64 0 1 cbr 500 ------- 0 0.0 1.0 135 135
- 0.64 0 1 cbr 500 ------- 0 0.0 1.0 135 135
r 0.642 0 1 cbr 500 ------- 0 0.0 1.0 132 132
+ 0.644 0 1 cbr 500 ------- 0 0.0 1.0 136 136
- 0.644 0 1 cbr 500 ------- 0 0.0 1.0 136 136
r 0.646 0 1 cbr 500 ------- 0 0.0 1.0 133 133
+ 0.648 0 1 cbr 500 ------- 0 0.0 1.0 137 137
- 0.648 0 1 cbr 500 ------- 0 0.0 1.0 137 137
r 0.65 0 1 cbr 500 ------- 0 0.0 1.0 134 134
+ 0.652 0 1 cbr 500 ------- 0 0.0 1.0 138 138
- 0.652 0 1 cbr 500 ------- 0 0.0 1.0 138 138
r 0.654 0 1 cbr 500 ------- 0 0.0 1.0 135 135
+ 0.656 0 1 cbr 500 ------- 0 0.0 1.0 139 139
- 0.656 0 1 cbr 500 ------- 0 0.0 1.0 139 139
r 0.658 0 1 cbr 500 ------- 0 0.0 1.0 136 136
+ 0.66 0 1 cbr 500 ------- 0 0.0 1.0 140 140
- 0.66 0 1 cbr 500 ------- 0 0.0 1.0 140 140
r 0.662 0 1 cbr 500 ------- 0 0.0 1.0 137 137
+ 0.664 0 1 cbr 500 ------- 0 0.0 1.0 141 141
- 0.664 0 1 cbr 500 ------- 0 0.0 1.0 141 141
r 0.666 0 1 cbr 500 ------- 0 0.0 1.0 138 138
+ 0.668 0 1 cbr 500 ------- 0 0.0 1.0 142 142
- 0.668 0 1 cbr 500 ------- 0 0.0 1.0 142 142
r 0.67 0 1 cbr 500 ------- 0 0.0 1.0 139 139
+ 0.672 0 1 cbr 500 ------- 0 0.0 1.0 143 143
- 0.672 0 1 cbr 500 ------- 0 0.0 1.0 143 143
r 0.674 0 1 cbr 500 ------- 0 0.0 1.0 140 140
+ 0.676 0 1 cbr 500 ------- 0 0.0 1.0 144 144
- 0.676 0 1 cbr 500 ------- 0 0.0 1.0 144 144
r 0.678 0 1 cbr 500 ------- 0 0.0 1.0 141 141
+ 0.68 0 1 cbr 500 ------- 0 0.0 1.0 145 145
- 0.68 0 1 cbr 500 ------- 0 0.0 1.0 145 145
r 0.682 0 1 cbr 500 ------- 0 0.0 1.0 142 142
+ 0.684 0 1 cbr 500 ------- 0 0.0 1.0 146 146
- 0.684 0 1 cbr 500 ------- 0 0.0 1.0 146 146
r 0.686 0 1 cbr 500 ------- 0 0.0 1.0 143 143
+ 0.688 0 1 cbr 500 ------- 0 0.0 1.0 147 147
- 0.688 0 1 cbr 500 ------- 0 0.0 1.0 147 147
r 0.69 0 1 cbr 500 ------- 0 0.0 1.0 144 144
+ 0.692 0 1 cbr 500 ------- 0 0.0 1.0 148 148
- 0.692 0 1 cbr 500 ------- 0 0.0 1.0 148 148
r 0.694 0 1 cbr 500 ------- 0 0.0 1.0 145 145
+ 0.696 0 1 cbr 500 ------- 0 0.0 1.0 149 149
- 0.696 0 1 cbr 500 ------- 0 0.0 1.0 149 149
r 0.698 0 1 cbr 500 ------- 0 0.0 1.0 146 146
+ 0.7 0 1 cbr 500 ------- 0 0.0 1.0 150 150
- 0.7 0 1 cbr 500 ------- 0 0.0 1.0 150 150
r 0.702 0 1 cbr 500 ------- 0 0.0 1.0 147 147
+ 0.704 0 1 cbr 500 ------- 0 0.0 1.0 151 151
- 0.704 0 1 cbr 500 ------- 0 0.0 1.0 151 151
r 0.706 0 1 cbr 500 ------- 0 0.0 1.0 148 148
+ 0.708 0 1 cbr 500 ------- 0 0.0 1.0 152 152
- 0.708 0 1 cbr 500 ------- 0 0.0 1.0 152 152
r 0.71 0 1 cbr 500 ------- 0 0.0 1.0 149 149
+ 0.712 0 1 cbr 500 ------- 0 0.0 1.0 153 153
- 0.712 0 1 cbr 500 ------- 0 0.0 1.0 153 153
r 0.714 0 1 cbr 500 ------- 0 0.0 1.0 150 150
+ 0.716 0 1 cbr 500 ------- 0 0.0 1.0 154 154
- 0.716 0 1 cbr 500 ------- 0 0.0 1.0 154 154
r 0.718 0 1 cbr 500 ------- 0 0.0 1.0 151 151
+ 0.72 0 1 cbr 500 ------- 0 0.0 1.0 155 155
- 0.72 0 1 cbr 500 ------- 0 0.0 1.0 155 155
r 0.722 0 1 cbr 500 ------- 0 0.0 1.0 152 152
+ 0.724 0 1 cbr 500 ------- 0 0.0 1.0 156 156
- 0.724 0 1 cbr 500 ------- 0 0.0 1.0 156 156
r 0.726 0 1 cbr 500 ------- 0 0.0 1.0 153 153
+ 0.728 0 1 cbr 500 ------- 0 0.0 1.0 157 157
- 0.728 0 1 cbr 500 ------- 0 0.0 1.0 157 157
r 0.73 0 1 cbr 500 ------- 0 0.0 1.0 154 154
+ 0.732 0 1 cbr 500 ------- 0 0.0 1.0 158 158
- 0.732 0 1 cbr 500 ------- 0 0.0 1.0 158 158
r 0.734 0 1 cbr 500 ------- 0 0.0 1.0 155 155
+ 0.736 0 1 cbr 500 ------- 0 0.0 1.0 159 159
- 0.736 0 1 cbr 500 ------- 0 0.0 1.0 159 159
r 0.738 0 1 cbr 500 ------- 0 0.0 1.0 156 156
+ 0.74 0 1 cbr 500 ------- 0 0.0 1.0 160 160
- 0.74 0 1 cbr 500 ------- 0 0.0 1.0 160 160
r 0.742 0 1 cbr 500 ------- 0 0.0 1.0 157 157
+ 0.744 0 1 cbr 500 ------- 0 0.0 1.0 161 161
- 0.744 0 1 cbr 500 ------- 0 0.0 1.0 161 161
r 0.746 0 1 cbr 500 ------- 0 0.0 1.0 158 158
+ 0.748 0 1 cbr 500 ------- 0 0.0 1.0 162 162
- 0.748 0 1 cbr 500 ------- 0 0.0 1.0 162 162
r 0.75 0 1 cbr 500 ------- 0 0.0 1.0 159 159
+ 0.752 0 1 cbr 500 ------- 0 0.0 1.0 163 163
- 0.752 0 1 cbr 500 ------- 0 0.0 1.0 163 163
r 0.754 0 1 cbr 500 ------- 0 0.0 1.0 160 160
+ 0.756 0 1 cbr 500 ------- 0 0.0 1.0 164 164
- 0.756 0 1 cbr 500 ------- 0 0.0 1.0 164 164
r 0.758 0 1 cbr 500 ------- 0 0.0 1.0 161 161
+ 0.76 0 1 cbr 500 ------- 0 0.0 1.0 165 165
- 0.76 0 1 cbr 500 ------- 0 0.0 1.0 165 165
r 0.762 0 1 cbr 500 ------- 0 0.0 1.0 162 162
+ 0.764 0 1 cbr 500 ------- 0 0.0 1.0 166 166
- 0.764 0 1 cbr 500 ------- 0 0.0 1.0 166 166
r 0.766 0 1 cbr 500 ------- 0 0.0 1.0 163 163
+ 0.768 0 1 cbr 500 ------- 0 0.0 1.0 167 167
- 0.768 0 1 cbr 500 ------- 0 0.0 1.0 167 167
r 0.77 0 1 cbr 500 ------- 0 0.0 1.0 164 164
+ 0.772 0 1 cbr 500 ------- 0 0.0 1.0 168 168
- 0.772 0 1 cbr 500 ------- 0 0.0 1.0 168 168
r 0.774 0 1 cbr 500 ------- 0 0.0 1.0 165 165
+ 0.776 0 1 cbr 500 ------- 0 0.0 1.0 169 169
- 0.776 0 1 cbr 500 ------- 0 0.0 1.0 169 169
r 0.778 0 1 cbr 500 ------- 0 0.0 1.0 166 166
+ 0.78 0 1 cbr 500 ------- 0 0.0 1.0 170 170
- 0.78 0 1 cbr 500 ------- 0 0.0 1.0 170 170
r 0.782 0 1 cbr 500 ------- 0 0.0 1.0 167 167
+ 0.784 0 1 cbr 500 ------- 0 0.0 1.0 171 171
- 0.784 0 1 cbr 500 ------- 0 0.0 1.0 171 171
r 0.786 0 1 cbr 500 ------- 0 0.0 1.0 168 168
+ 0.788 0 1 cbr 500 ------- 0 0.0 1.0 172 172
- 0.788 0 1 cbr 500 ------- 0 0.0 1.0 172 172
r 0.79 0 1 cbr 500 ------- 0 0.0 1.0 169 169
+ 0.792 0 1 cbr 500 ------- 0 0.0 1.0 173 173
- 0.792 0 1 cbr 500 ------- 0 0.0 1.0 173 173
r 0.794 0 1 cbr 500 ------- 0 0.0 1.0 170 170
+ 0.796 0 1 cbr 500 ------- 0 0.0 1.0 174 174
- 0.796 0 1 cbr 500 ------- 0 0.0 1.0 174 174
r 0.798 0 1 cbr 500 ------- 0 0.0 1.0 171 171
+ 0.8 0 1 cbr 500 ------- 0 0.0 1.0 175 175
- 0.8 0 1 cbr 500 ------- 0 0.0 1.0 175 175
r 0.802 0 1 cbr 500 ------- 0 0.0 1.0 172 172
+ 0.804 0 1 cbr 500 ------- 0 0.0 1.0 176 176
- 0.804 0 1 cbr 500 ------- 0 0.0 1.0 176 176
r 0.806 0 1 cbr 500 ------- 0 0.0 1.0 173 173
+ 0.808 0 1 cbr 500 ------- 0 0.0 1.0 177 177
- 0.808 0 1 cbr 500 ------- 0 0.0 1.0 177 177
r 0.81 0 1 cbr 500 ------- 0 0.0 1.0 174 174
+ 0.812 0 1 cbr 500 ------- 0 0.0 1.0 178 178
- 0.812 0 1 cbr 500 ------- 0 0.0 1.0 178 178
r 0.814 0 1 cbr 500 ------- 0 0.0 1.0 175 175
+ 0.816 0 1 cbr 500 ------- 0 0.0 1.0 179 179
- 0.816 0 1 cbr 500 ------- 0 0.0 1.0 179 179
r 0.818 0 1 cbr 500 ------- 0 0.0 1.0 176 176
+ 0.82 0 1 cbr 500 ------- 0 0.0 1.0 180 180
- 0.82 0 1 cbr 500 ------- 0 0.0 1.0 180 180
r 0.822 0 1 cbr 500 ------- 0 0.0 1.0 177 177
+ 0.824 0 1 cbr 500 ------- 0 0.0 1.0 181 181
- 0.824 0 1 cbr 500 ------- 0 0.0 1.0 181 181
r 0.826 0 1 cbr 500 ------- 0 0.0 1.0 178 178
+ 0.828 0 1 cbr 500 ------- 0 0.0 1.0 182 182
- 0.828 0 1 cbr 500 ------- 0 0.0 1.0 182 182
r 0.83 0 1 cbr 500 ------- 0 0.0 1.0 179 179
+ 0.832 0 1 cbr 500 ------- 0 0.0 1.0 183 183
- 0.832 0 1 cbr 500 ------- 0 0.0 1.0 183 183
r 0.834 0 1 cbr 500 ------- 0 0.0 1.0 180 180
+ 0.836 0 1 cbr 500 ------- 0 0.0 1.0 184 184
- 0.836 0 1 cbr 500 ------- 0 0.0 1.0 184 184
r 0.838 0 1 cbr 500 ------- 0 0.0 1.0 181 181
+ 0.84 0 1 cbr 500 ------- 0 0.0 1.0 185 185
- 0.84 0 1 cbr 500 ------- 0 0.0 1.0 185 185
r 0.842 0 1 cbr 500 ------- 0 0.0 1.0 182 182
+ 0.844 0 1 cbr 500 ------- 0 0.0 1.0 186 186
- 0.844 0 1 cbr 500 ------- 0 0.0 1.0 186 186
r 0.846 0 1 cbr 500 ------- 0 0.0 1.0 183 183
+ 0.848 0 1 cbr 500 ------- 0 0.0 1.0 187 187
- 0.848 0 1 cbr 500 ------- 0 0.0 1.0 187 187
r 0.85 0 1 cbr 500 ------- 0 0.0 1.0 184 184
+ 0.852 0 1 cbr 500 ------- 0 0.0 1.0 188 188
- 0.852 0 1 cbr 500 ------- 0 0.0 1.0 188 188
r 0.854 0 1 cbr 500 ------- 0 0.0 1.0 185 185
+ 0.856 0 1 cbr 500 ------- 0 0.0 1.0 189 189
- 0.856 0 1 cbr 500 ------- 0 0.0 1.0 189 189
r 0.858 0 1 cbr 500 ------- 0 0.0 1.0 186 186
+ 0.86 0 1 cbr 500 ------- 0 0.0 1.0 190 190
- 0.86 0 1 cbr 500 ------- 0 0.0 1.0 190 190
r 0.862 0 1 cbr 500 ------- 0 0.0 1.0 187 187
+ 0.864 0 1 cbr 500 ------- 0 0.0 1.0 191 191
- 0.864 0 1 cbr 500 ------- 0 0.0 1.0 191 191
r 0.866 0 1 cbr 500 ------- 0 0.0 1.0 188 188
+ 0.868 0 1 cbr 500 ------- 0 0.0 1.0 192 192
- 0.868 0 1 cbr 500 ------- 0 0.0 1.0 192 192
r 0.87 0 1 cbr 500 ------- 0 0.0 1.0 189 189
+ 0.872 0 1 cbr 500 ------- 0 0.0 1.0 193 193
- 0.872 0 1 cbr 500 ------- 0 0.0 1.0 193 193
r 0.874 0 1 cbr 500 ------- 0 0.0 1.0 190 190
+ 0.876 0 1 cbr 500 ------- 0 0.0 1.0 194 194
- 0.876 0 1 cbr 500 ------- 0 0.0 1.0 194 194
r 0.878 0 1 cbr 500 ------- 0 0.0 1.0 191 191
+ 0.88 0 1 cbr 500 ------- 0 0.0 1.0 195 195
- 0.88 0 1 cbr 500 ------- 0 0.0 1.0 195 195
r 0.882 0 1 cbr 500 ------- 0 0.0 1.0 192 192
+ 0.884 0 1 cbr 500 ------- 0 0.0 1.0 196 196
- 0.884 0 1 cbr 500 ------- 0 0.0 1.0 196 196
r 0.886 0 1 cbr 500 ------- 0 0.0 1.0 193 193
+ 0.888 0 1 cbr 500 ------- 0 0.0 1.0 197 197
- 0.888 0 1 cbr 500 ------- 0 0.0 1.0 197 197
r 0.89 0 1 cbr 500 ------- 0 0.0 1.0 194 194
+ 0.892 0 1 cbr 500 ------- 0 0.0 1.0 198 198
- 0.892 0 1 cbr 500 ------- 0 0.0 1.0 198 198
r 0.894 0 1 cbr 500 ------- 0 0.0 1.0 195 195
+ 0.896 0 1 cbr 500 ------- 0 0.0 1.0 199 199
- 0.896 0 1 cbr 500 ------- 0 0.0 1.0 199 199
r 0.898 0 1 cbr 500 ------- 0 0.0 1.0 196 196
+ 0.9 0 1 cbr 500 ------- 0 0.0 1.0 200 200
- 0.9 0 1 cbr 500 ------- 0 0.0 1.0 200 200
r 0.902 0 1 cbr 500 ------- 0 0.0 1.0 197 197
+ 0.904 0 1 cbr 500 ------- 0 0.0 1.0 201 201
- 0.904 0 1 cbr 500 ------- 0 0.0 1.0 201 201
r 0.906 0 1 cbr 500 ------- 0 0.0 1.0 198 198
+ 0.908 0 1 cbr 500 ------- 0 0.0 1.0 202 202
- 0.908 0 1 cbr 500 ------- 0 0.0 1.0 202 202
r 0.91 0 1 cbr 500 ------- 0 0.0 1.0 199 199
+ 0.912 0 1 cbr 500 ------- 0 0.0 1.0 203 203
- 0.912 0 1 cbr 500 ------- 0 0.0 1.0 203 203
r 0.914 0 1 cbr 500 ------- 0 0.0 1.0 200 200
+ 0.916 0 1 cbr 500 ------- 0 0.0 1.0 204 204
- 0.916 0 1 cbr 500 ------- 0 0.0 1.0 204 204
r 0.918 0 1 cbr 500 ------- 0 0.0 1.0 201 201
+ 0.92 0 1 cbr 500 ------- 0 0.0 1.0 205 205
- 0.92 0 1 cbr 500 ------- 0 0.0 1.0 205 205
r 0.922 0 1 cbr 500 ------- 0 0.0 1.0 202 202
+ 0.924 0 1 cbr 500 ------- 0 0.0 1.0 206 206
- 0.924 0 1 cbr 500 ------- 0 0.0 1.0 206 206
r 0.926 0 1 cbr 500 ------- 0 0.0 1.0 203 203
+ 0.928 0 1 cbr 500 ------- 0 0.0 1.0 207 207
- 0.928 0 1 cbr 500 ------- 0 0.0 1.0 207 207
r 0.93 0 1 cbr 500 ------- 0 0.0 1.0 204 204
+ 0.932 0 1 cbr 500 ------- 0 0.0 1.0 208 208
- 0.932 0 1 cbr 500 ------- 0 0.0 1.0 208 208
r 0.934 0 1 cbr 500 ------- 0 0.0 1.0 205 205
+ 0.936 0 1 cbr 500 ------- 0 0.0 1.0 209 209
- 0.936 0 1 cbr 500 ------- 0 0.0 1.0 209 209
r 0.938 0 1 cbr 500 ------- 0 0.0 1.0 206 206
+ 0.94 0 1 cbr 500 ------- 0 0.0 1.0 210 210
- 0.94 0 1 cbr 500 ------- 0 0.0 1.0 210 210
r 0.942 0 1 cbr 500 ------- 0 0.0 1.0 207 207
+ 0.944 0 1 cbr 500 ------- 0 0.0 1.0 211 211
- 0.944 0 1 cbr 500 ------- 0 0.0 1.0 211 211
r 0.946 0 1 cbr 500 ------- 0 0.0 1.0 208 208
+ 0.948 0 1 cbr 500 ------- 0 0.0 1.0 212 212
- 0.948 0 1 cbr 500 ------- 0 0.0 1.0 212 212
r 0.95 0 1 cbr 500 ------- 0 0.0 1.0 209 209
+ 0.952 0 1 cbr 500 ------- 0 0.0 1.0 213 213
- 0.952 0 1 cbr 500 ------- 0 0.0 1.0 213 213
r 0.954 0 1 cbr 500 ------- 0 0.0 1.0 210 210
+ 0.956 0 1 cbr 500 ------- 0 0.0 1.0 214 214
- 0.956 0 1 cbr 500 ------- 0 0.0 1.0 214 214
r 0.958 0 1 cbr 500 ------- 0 0.0 1.0 211 211
+ 0.96 0 1 cbr 500 ------- 0 0.0 1.0 215 215
- 0.96 0 1 cbr 500 ------- 0 0.0 1.0 215 215
r 0.962 0 1 cbr 500 ------- 0 0.0 1.0 212 212
+ 0.964 0 1 cbr 500 ------- 0 0.0 1.0 216 216
- 0.964 0 1 cbr 500 ------- 0 0.0 1.0 216 216
r 0.966 0 1 cbr 500 ------- 0 0.0 1.0 213 213
+ 0.968 0 1 cbr 500 ------- 0 0.0 1.0 217 217
- 0.968 0 1 cbr 500 ------- 0 0.0 1.0 217 217
r 0.97 0 1 cbr 500 ------- 0 0.0 1.0 214 214
+ 0.972 0 1 cbr 500 ------- 0 0.0 1.0 218 218
- 0.972 0 1 cbr 500 ------- 0 0.0 1.0 218 218
r 0.974 0 1 cbr 500 ------- 0 0.0 1.0 215 215
+ 0.976 0 1 cbr 500 ------- 0 0.0 1.0 219 219
- 0.976 0 1 cbr 500 ------- 0 0.0 1.0 219 219
r 0.978 0 1 cbr 500 ------- 0 0.0 1.0 216 216
+ 0.98 0 1 cbr 500 ------- 0 0.0 1.0 220 220
- 0.98 0 1 cbr 500 ------- 0 0.0 1.0 220 220
r 0.982 0 1 cbr 500 ------- 0 0.0 1.0 217 217
+ 0.984 0 1 cbr 500 ------- 0 0.0 1.0 221 221
- 0.984 0 1 cbr 500 ------- 0 0.0 1.0 221 221
r 0.986 0 1 cbr 500 ------- 0 0.0 1.0 218 218
+ 0.988 0 1 cbr 500 ------- 0 0.0 1.0 222 222
- 0.988 0 1 cbr 500 ------- 0 0.0 1.0 222 222
r 0.99 0 1 cbr 500 ------- 0 0.0 1.0 219 219
+ 0.992 0 1 cbr 500 ------- 0 0.0 1.0 223 223
- 0.992 0 1 cbr 500 ------- 0 0.0 1.0 223 223
r 0.994 0 1 cbr 500 ------- 0 0.0 1.0 220 220