+ 0.1 0 1 cbr 500 ------- 0 0.0 1.0 0 0
- 0.1 0 1 cbr 500 ------- 0 0.0 1.0 0 0
+ 0.101 0 1 cbr 500 ------- 0 0.0 1.0 1 1
+ 0.102 0 1 cbr 500 ------- 0 0.0 1.0 2 2
+ 0.103 0 1 cbr 500 ------- 0 0.0 1.0 3 3
- 0.104 0 1 cbr 500 ------- 0 0.0 1.0 1 1
+ 0.104 0 1 cbr 500 ------- 0 0.0 1.0 4 4
+ 0.105 0 1 cbr 500 ------- 0 0.0 1.0 5 5
+ 0.106 0 1 cbr 500 ------- 0 0.0 1.0 6 6
+ 0.107 0 1 cbr 500 ------- 0 0.0 1.0 7 7
- 0.108 0 1 cbr 500 ------- 0 0.0 1.0 2 2
+ 0.108 0 1 cbr 500 ------- 0 0.0 1.0 8 8
+ 0.109 0 1 cbr 500 ------- 0 0.0 1.0 9 9
+ 0.11 0 1 cbr 500 ------- 0 0.0 1.0 10 10
+ 0.111 0 1 cbr 500 ------- 0 0.0 1.0 11 11
- 0.112 0 1 cbr 500 ------- 0 0.0 1.0 3 3
+ 0.112 0 1 cbr 500 ------- 0 0.0 1.0 12 12
+ 0.113 0 1 cbr 500 ------- 0 0.0 1.0 13 13
r 0.114 0 1 cbr 500 ------- 0 0.0 1.0 0 0
+ 0.114 0 1 cbr 500 ------- 0 0.0 1.0 14 14
+ 0.115 0 1 cbr 500 ------- 0 0.0 1.0 15 15
- 0.116 0 1 cbr 500 ------- 0 0.0 1.0 4 4
+ 0.116 0 1 cbr 500 ------- 0 0.0 1.0 16 16
+ 0.117 0 1 cbr 500 ------- 0 0.0 1.0 17 17
r 0.118 0 1 cbr 500 ------- 0 0.0 1.0 1 1
+ 0.118 0 1 cbr 500 ------- 0 0.0 1.0 18 18
+ 0.119 0 1 cbr 500 ------- 0 0.0 1.0 19 19
d 0.119 0 1 cbr 500 ------- 0 0.0 1.0 19 19
- 0.12 0 1 cbr 500 ------- 0 0.0 1.0 5 5
+ 0.12 0 1 cbr 500 ------- 0 0.0 1.0 20 20
+ 0.121 0 1 cbr 500 ------- 0 0.0 1.0 21 21
d 0.121 0 1 cbr 500 ------- 0 0.0 1.0 21 21
r 0.122 0 1 cbr 500 ------- 0 0.0 1.0 2 2
+ 0.122 0 1 cbr 500 ------- 0 0.0 1.0 22 22
d 0.122 0 1 cbr 500 ------- 0 0.0 1.0 22 22
+ 0.123 0 1 cbr 500 ------- 0 0.0 1.0 23 23
d 0.123 0 1 cbr 500 ------- 0 0.0 1.0 23 23
- 0.124 0 1 cbr 500 ------- 0 0.0 1.0 6 6
+ 0.124 0 1 cbr 500 ------- 0 0.0 1.0 24 24
+ 0.125 0 1 cbr 500 ------- 0 0.0 1.0 25 25
d 0.125 0 1 cbr 500 ------- 0 0.0 1.0 25 25
r 0.126 0 1 cbr 500 ------- 0 0.0 1.0 3 3
+ 0.126 0 1 cbr 500 ------- 0 0.0 1.0 26 26
d 0.126 0 1 cbr 500 ------- 0 0.0 1.0 26 26
+ 0.127 0 1 cbr 500 ------- 0 0.0 1.0 27 27
d 0.127 0 1 cbr 500 ------- 0 0.0 1.0 27 27
- 0.128 0 1 cbr 500 ------- 0 0.0 1.0 7 7
+ 0.128 0 1 cbr 500 ------- 0 0.0 1.0 28 28
+ 0.129 0 1 cbr 500 ------- 0 0.0 1.0 29 29
d 0.129 0 1 cbr 500 ------- 0 0.0 1.0 29 29
r 0.13 0 1 cbr 500 ------- 0 0.0 1.0 4 4
+ 0.13 0 1 cbr 500 ------- 0 0.0 1.0 30 30
d 0.13 0 1 cbr 500 ------- 0 0.0 1.0 30 30
+ 0.131 0 1 cbr 500 ------- 0 0.0 1.0 31 31
d 0.131 0 1 cbr 500 ------- 0 0.0 1.0 31 31
- 0.132 0 1 cbr 500 ------- 0 0.0 1.0 8 8
+ 0.132 0 1 cbr 500 ------- 0 0.0 1.0 32 32
+ 0.133 0 1 cbr 500 ------- 0 0.0 1.0 33 33
d 0.133 0 1 cbr 500 ------- 0 0.0 1.0 33 33
r 0.134 0 1 cbr 500 ------- 0 0.0 1.0 5 5
+ 0.134 0 1 cbr 500 ------- 0 0.0 1.0 34 34
d 0.134 0 1 cbr 500 ------- 0 0.0 1.0 34 34
+ 0.135 0 1 cbr 500 ------- 0 0.0 1.0 35 35
d 0.135 0 1 cbr 500 ------- 0 0.0 1.0 35 35
- 0.136 0 1 cbr 500 ------- 0 0.0 1.0 9 9
+ 0.136 0 1 cbr 500 ------- 0 0.0 1.0 36 36
+ 0.137 0 1 cbr 500 ------- 0 0.0 1.0 37 37
d 0.137 0 1 cbr 500 ------- 0 0.0 1.0 37 37
r 0.138 0 1 cbr 500 ------- 0 0.0 1.0 6 6
+ 0.138 0 1 cbr 500 ------- 0 0.0 1.0 38 38
d 0.138 0 1 cbr 500 ------- 0 0.0 1.0 38 38
+ 0.139 0 1 cbr 500 ------- 0 0.0 1.0 39 39
d 0.139 0 1 cbr 500 ------- 0 0.0 1.0 39 39
- 0.14 0 1 cbr 500 ------- 0 0.0 1.0 10 10
+ 0.14 0 1 cbr 500 ------- 0 0.0 1.0 40 40
+ 0.141 0 1 cbr 500 ------- 0 0.0 1.0 41 41
d 0.141 0 1 cbr 500 ------- 0 0.0 1.0 41 41
r 0.142 0 1 cbr 500 ------- 0 0.0 1.0 7 7
+ 0.142 0 1 cbr 500 ------- 0 0.0 1.0 42 42
d 0.142 0 1 cbr 500 ------- 0 0.0 1.0 42 42
+ 0.143 0 1 cbr 500 ------- 0 0.0 1.0 43 43
d 0.143 0 1 cbr 500 ------- 0 0.0 1.0 43 43
- 0.144 0 1 cbr 500 ------- 0 0.0 1.0 11 11
+ 0.144 0 1 cbr 500 ------- 0 0.0 1.0 44 44
+ 0.145 0 1 cbr 500 ------- 0 0.0 1.0 45 45
d 0.145 0 1 cbr 500 ------- 0 0.0 1.0 45 45
r 0.146 0 1 cbr 500 ------- 0 0.0 1.0 8 8
+ 0.146 0 1 cbr 500 ------- 0 0.0 1.0 46 46
d 0.146 0 1 cbr 500 ------- 0 0.0 1.0 46 46
+ 0.147 0 1 cbr 500 ------- 0 0.0 1.0 47 47
d 0.147 0 1 cbr 500 ------- 0 0.0 1.0 47 47
- 0.148 0 1 cbr 500 ------- 0 0.0 1.0 12 12
+ 0.148 0 1 cbr 500 ------- 0 0.0 1.0 48 48
+ 0.149 0 1 cbr 500 ------- 0 0.0 1.0 49 49
d 0.149 0 1 cbr 500 ------- 0 0.0 1.0 49 49
r 0.15 0 1 cbr 500 ------- 0 0.0 1.0 9 9
+ 0.15 0 1 cbr 500 ------- 0 0.0 1.0 50 50
d 0.15 0 1 cbr 500 ------- 0 0.0 1.0 50 50
+ 0.151 0 1 cbr 500 ------- 0 0.0 1.0 51 51
d 0.151 0 1 cbr 500 ------- 0 0.0 1.0 51 51
- 0.152 0 1 cbr 500 ------- 0 0.0 1.0 13 13
+ 0.152 0 1 cbr 500 ------- 0 0.0 1.0 52 52
+ 0.153 0 1 cbr 500 ------- 0 0.0 1.0 53 53
d 0.153 0 1 cbr 500 ------- 0 0.0 1.0 53 53
r 0.154 0 1 cbr 500 ------- 0 0.0 1.0 10 10
+ 0.154 0 1 cbr 500 ------- 0 0.0 1.0 54 54
d 0.154 0 1 cbr 500 ------- 0 0.0 1.0 54 54
+ 0.155 0 1 cbr 500 ------- 0 0.0 1.0 55 55
d 0.155 0 1 cbr 500 ------- 0 0.0 1.0 55 55
- 0.156 0 1 cbr 500 ------- 0 0.0 1.0 14 14
+ 0.156 0 1 cbr 500 ------- 0 0.0 1.0 56 56
+ 0.157 0 1 cbr 500 ------- 0 0.0 1.0 57 57
d 0.157 0 1 cbr 500 ------- 0 0.0 1.0 57 57
r 0.158 0 1 cbr 500 ------- 0 0.0 1.0 11 11
+ 0.158 0 1 cbr 500 ------- 0 0.0 1.0 58 58
d 0.158 0 1 cbr 500 ------- 0 0.0 1.0 58 58
+ 0.159 0 1 cbr 500 ------- 0 0.0 1.0 59 59
d 0.159 0 1 cbr 500 ------- 0 0.0 1.0 59 59
- 0.16 0 1 cbr 500 ------- 0 0.0 1.0 15 15
+ 0.16 0 1 cbr 500 ------- 0 0.0 1.0 60 60
+ 0.161 0 1 cbr 500 ------- 0 0.0 1.0 61 61
d 0.161 0 1 cbr 500 ------- 0 0.0 1.0 61 61
r 0.162 0 1 cbr 500 ------- 0 0.0 1.0 12 12
+ 0.162 0 1 cbr 500 ------- 0 0.0 1.0 62 62
d 0.162 0 1 cbr 500 ------- 0 0.0 1.0 62 62
+ 0.163 0 1 cbr 500 ------- 0 0.0 1.0 63 63
d 0.163 0 1 cbr 500 ------- 0 0.0 1.0 63 63
- 0.164 0 1 cbr 500 ------- 0 0.0 1.0 16 16
+ 0.164 0 1 cbr 500 ------- 0 0.0 1.0 64 64
+ 0.165 0 1 cbr 500 ------- 0 0.0 1.0 65 65
d 0.165 0 1 cbr 500 ------- 0 0.0 1.0 65 65
r 0.166 0 1 cbr 500 ------- 0 0.0 1.0 13 13
+ 0.166 0 1 cbr 500 ------- 0 0.0 1.0 66 66
d 0.166 0 1 cbr 500 ------- 0 0.0 1.0 66 66
+ 0.167 0 1 cbr 500 ------- 0 0.0 1.0 67 67
d 0.167 0 1 cbr 500 ------- 0 0.0 1.0 67 67
- 0.168 0 1 cbr 500 ------- 0 0.0 1.0 17 17
+ 0.168 0 1 cbr 500 ------- 0 0.0 1.0 68 68
+ 0.169 0 1 cbr 500 ------- 0 0.0 1.0 69 69
d 0.169 0 1 cbr 500 ------- 0 0.0 1.0 69 69
r 0.17 0 1 cbr 500 ------- 0 0.0 1.0 14 14
+ 0.17 0 1 cbr 500 ------- 0 0.0 1.0 70 70
d 0.17 0 1 cbr 500 ------- 0 0.0 1.0 70 70
+ 0.171 0 1 cbr 500 ------- 0 0.0 1.0 71 71
d 0.171 0 1 cbr 500 ------- 0 0.0 1.0 71 71
- 0.172 0 1 cbr 500 ------- 0 0.0 1.0 18 18
+ 0.172 0 1 cbr 500 ------- 0 0.0 1.0 72 72
+ 0.173 0 1 cbr 500 ------- 0 0.0 1.0 73 73
d 0.173 0 1 cbr 500 ------- 0 0.0 1.0 73 73
r 0.174 0 1 cbr 500 ------- 0 0.0 1.0 15 15
+ 0.174 0 1 cbr 500 ------- 0 0.0 1.0 74 74
d 0.174 0 1 cbr 500 ------- 0 0.0 1.0 74 74
+ 0.175 0 1 cbr 500 ------- 0 0.0 1.0 75 75
d 0.175 0 1 cbr 500 ------- 0 0.0 1.0 75 75
- 0.176 0 1 cbr 500 ------- 0 0.0 1.0 20 20
+ 0.176 0 1 cbr 500 ------- 0 0.0 1.0 76 76
+ 0.177 0 1 cbr 500 ------- 0 0.0 1.0 77 77
d 0.177 0 1 cbr 500 ------- 0 0.0 1.0 77 77
r 0.178 0 1 cbr 500 ------- 0 0.0 1.0 16 16
+ 0.178 0 1 cbr 500 ------- 0 0.0 1.0 78 78
d 0.178 0 1 cbr 500 ------- 0 0.0 1.0 78 78
+ 0.179 0 1 cbr 500 ------- 0 0.0 1.0 79 79
d 0.179 0 1 cbr 500 ------- 0 0.0 1.0 79 79
- 0.18 0 1 cbr 500 ------- 0 0.0 1.0 24 24
+ 0.18 0 1 cbr 500 ------- 0 0.0 1.0 80 80
+ 0.181 0 1 cbr 500 ------- 0 0.0 1.0 81 81
d 0.181 0 1 cbr 500 ------- 0 0.0 1.0 81 81
r 0.182 0 1 cbr 500 ------- 0 0.0 1.0 17 17
+ 0.182 0 1 cbr 500 ------- 0 0.0 1.0 82 82
d 0.182 0 1 cbr 500 ------- 0 0.0 1.0 82 82
+ 0.183 0 1 cbr 500 ------- 0 0.0 1.0 83 83
d 0.183 0 1 cbr 500 ------- 0 0.0 1.0 83 83
- 0.184 0 1 cbr 500 ------- 0 0.0 1.0 28 28
+ 0.184 0 1 cbr 500 ------- 0 0.0 1.0 84 84
+ 0.185 0 1 cbr 500 ------- 0 0.0 1.0 85 85
d 0.185 0 1 cbr 500 ------- 0 0.0 1.0 85 85
r 0.186 0 1 cbr 500 ------- 0 0.0 1.0 18 18
+ 0.186 0 1 cbr 500 ------- 0 0.0 1.0 86 86
d 0.186 0 1 cbr 500 ------- 0 0.0 1.0 86 86
+ 0.187 0 1 cbr 500 ------- 0 0.0 1.0 87 87
d 0.187 0 1 cbr 500 ------- 0 0.0 1.0 87 87
- 0.188 0 1 cbr 500 ------- 0 0.0 1.0 32 32
+ 0.188 0 1 cbr 500 ------- 0 0.0 1.0 88 88
+ 0.189 0 1 cbr 500 ------- 0 0.0 1.0 89 89
d 0.189 0 1 cbr 500 ------- 0 0.0 1.0 89 89
r 0.19 0 1 cbr 500 ------- 0 0.0 1.0 20 20
+ 0.19 0 1 cbr 500 ------- 0 0.0 1.0 90 90
d 0.19 0 1 cbr 500 ------- 0 0.0 1.0 90 90
+ 0.191 0 1 cbr 500 ------- 0 0.0 1.0 91 91
d 0.191 0 1 cbr 500 ------- 0 0.0 1.0 91 91
- 0.192 0 1 cbr 500 ------- 0 0.0 1.0 36 36
+ 0.192 0 1 cbr 500 ------- 0 0.0 1.0 92 92
+ 0.193 0 1 cbr 500 ------- 0 0.0 1.0 93 93
d 0.193 0 1 cbr 500 ------- 0 0.0 1.0 93 93
r 0.194 0 1 cbr 500 ------- 0 0.0 1.0 24 24
+ 0.194 0 1 cbr 500 ------- 0 0.0 1.0 94 94
d 0.194 0 1 cbr 500 ------- 0 0.0 1.0 94 94
+ 0.195 0 1 cbr 500 ------- 0 0.0 1.0 95 95
d 0.195 0 1 cbr 500 ------- 0 0.0 1.0 95 95
- 0.196 0 1 cbr 500 ------- 0 0.0 1.0 40 40
+ 0.196 0 1 cbr 500 ------- 0 0.0 1.0 96 96
+ 0.197 0 1 cbr 500 ------- 0 0.0 1.0 97 97
d 0.197 0 1 cbr 500 ------- 0 0.0 1.0 97 97
r 0.198 0 1 cbr 500 ------- 0 0.0 1.0 28 28
+ 0.198 0 1 cbr 500 ------- 0 0.0 1.0 98 98
d 0.198 0 1 cbr 500 ------- 0 0.0 1.0 98 98
+ 0.199 0 1 cbr 500 ------- 0 0.0 1.0 99 99
d 0.199 0 1 cbr 500 ------- 0 0.0 1.0 99 99
- 0.2 0 1 cbr 500 ------- 0 0.0 1.0 44 44
+ 0.2 0 1 cbr 500 ------- 0 0.0 1.0 100 100
+ 0.201 0 1 cbr 500 ------- 0 0.0 1.0 101 101
d 0.201 0 1 cbr 500 ------- 0 0.0 1.0 101 101
r 0.202 0 1 cbr 500 ------- 0 0.0 1.0 32 32
+ 0.202 0 1 cbr 500 ------- 0 0.0 1.0 102 102
d 0.202 0 1 cbr 500 ------- 0 0.0 1.0 102 102
+ 0.203 0 1 cbr 500 ------- 0 0.0 1.0 103 103
d 0.203 0 1 cbr 500 ------- 0 0.0 1.0 103 103
- 0.204 0 1 cbr 500 ------- 0 0.0 1.0 48 48
+ 0.204 0 1 cbr 500 ------- 0 0.0 1.0 104 104
+ 0.205 0 1 cbr 500 ------- 0 0.0 1.0 105 105
d 0.205 0 1 cbr 500 ------- 0 0.0 1.0 105 105
r 0.206 0 1 cbr 500 ------- 0 0.0 1.0 36 36
+ 0.206 0 1 cbr 500 ------- 0 0.0 1.0 106 106
d 0.206 0 1 cbr 500 ------- 0 0.0 1.0 106 106
+ 0.207 0 1 cbr 500 ------- 0 0.0 1.0 107 107
d 0.207 0 1 cbr 500 ------- 0 0.0 1.0 107 107
- 0.208 0 1 cbr 500 ------- 0 0.0 1.0 52 52
+ 0.208 0 1 cbr 500 ------- 0 0.0 1.0 108 108
+ 0.209 0 1 cbr 500 ------- 0 0.0 1.0 109 109
d 0.209 0 1 cbr 500 ------- 0 0.0 1.0 109 109
r 0.21 0 1 cbr 500 ------- 0 0.0 1.0 40 40
+ 0.21 0 1 cbr 500 ------- 0 0.0 1.0 110 110
d 0.21 0 1 cbr 500 ------- 0 0.0 1.0 110 110
+ 0.211 0 1 cbr 500 ------- 0 0.0 1.0 111 111
d 0.211 0 1 cbr 500 ------- 0 0.0 1.0 111 111
- 0.212 0 1 cbr 500 ------- 0 0.0 1.0 56 56
+ 0.212 0 1 cbr 500 ------- 0 0.0 1.0 112 112
+ 0.213 0 1 cbr 500 ------- 0 0.0 1.0 113 113
d 0.213 0 1 cbr 500 ------- 0 0.0 1.0 113 113
r 0.214 0 1 cbr 500 ------- 0 0.0 1.0 44 44
+ 0.214 0 1 cbr 500 ------- 0 0.0 1.0 114 114
d 0.214 0 1 cbr 500 ------- 0 0.0 1.0 114 114
+ 0.215 0 1 cbr 500 ------- 0 0.0 1.0 115 115
d 0.215 0 1 cbr 500 ------- 0 0.0 1.0 115 115
- 0.216 0 1 cbr 500 ------- 0 0.0 1.0 60 60
+ 0.216 0 1 cbr 500 ------- 0 0.0 1.0 116 116
+ 0.217 0 1 cbr 500 ------- 0 0.0 1.0 117 117
d 0.217 0 1 cbr 500 ------- 0 0.0 1.0 117 117
r 0.218 0 1 cbr 500 ------- 0 0.0 1.0 48 48
+ 0.218 0 1 cbr 500 ------- 0 0.0 1.0 118 118
d 0.218 0 1 cbr 500 ------- 0 0.0 1.0 118 118
+ 0.219 0 1 cbr 500 ------- 0 0.0 1.0 119 119
d 0.219 0 1 cbr 500 ------- 0 0.0 1.0 119 119
- 0.22 0 1 cbr 500 ------- 0 0.0 1.0 64 64
+ 0.22 0 1 cbr 500 ------- 0 0.0 1.0 120 120
+ 0.221 0 1 cbr 500 ------- 0 0.0 1.0 121 121
d 0.221 0 1 cbr 500 ------- 0 0.0 1.0 121 121
r 0.222 0 1 cbr 500 ------- 0 0.0 1.0 52 52
+ 0.222 0 1 cbr 500 ------- 0 0.0 1.0 122 122
d 0.222 0 1 cbr 500 ------- 0 0.0 1.0 122 122
+ 0.223 0 1 cbr 500 ------- 0 0.0 1.0 123 123
d 0.223 0 1 cbr 500 ------- 0 0.0 1.0 123 123
- 0.224 0 1 cbr 500 ------- 0 0.0 1.0 68 68
+ 0.224 0 1 cbr 500 ------- 0 0.0 1.0 124 124
+ 0.225 0 1 cbr 500 ------- 0 0.0 1.0 125 125
d 0.225 0 1 cbr 500 ------- 0 0.0 1.0 125 125
r 0.226 0 1 cbr 500 ------- 0 0.0 1.0 56 56
+ 0.226 0 1 cbr 500 ------- 0 0.0 1.0 126 126
d 0.226 0 1 cbr 500 ------- 0 0.0 1.0 126 126
+ 0.227 0 1 cbr 500 ------- 0 0.0 1.0 127 127
d 0.227 0 1 cbr 500 ------- 0 0.0 1.0 127 127
- 0.228 0 1 cbr 500 ------- 0 0.0 1.0 72 72
+ 0.228 0 1 cbr 500 ------- 0 0.0 1.0 128 128
+ 0.229 0 1 cbr 500 ------- 0 0.0 1.0 129 129
d 0.229 0 1 cbr 500 ------- 0 0.0 1.0 129 129
r 0.23 0 1 cbr 500 ------- 0 0.0 1.0 60 60
+ 0.23 0 1 cbr 500 ------- 0 0.0 1.0 130 130
d 0.23 0 1 cbr 500 ------- 0 0.0 1.0 130 130
+ 0.231 0 1 cbr 500 ------- 0 0.0 1.0 131 131
d 0.231 0 1 cbr 500 ------- 0 0.0 1.0 131 131
- 0.232 0 1 cbr 500 ------- 0 0.0 1.0 76 76
+ 0.232 0 1 cbr 500 ------- 0 0.0 1.0 132 132
+ 0.233 0 1 cbr 500 ------- 0 0.0 1.0 133 133
d 0.233 0 1 cbr 500 ------- 0 0.0 1.0 133 133
r 0.234 0 1 cbr 500 ------- 0 0.0 1.0 64 64
+ 0.234 0 1 cbr 500 ------- 0 0.0 1.0 134 134
d 0.234 0 1 cbr 500 ------- 0 0.0 1.0 134 134
+ 0.235 0 1 cbr 500 ------- 0 0.0 1.0 135 135
d 0.235 0 1 cbr 500 ------- 0 0.0 1.0 135 135
- 0.236 0 1 cbr 500 ------- 0 0.0 1.0 80 80
+ 0.236 0 1 cbr 500 ------- 0 0.0 1.0 136 136
+ 0.237 0 1 cbr 500 ------- 0 0.0 1.0 137 137
d 0.237 0 1 cbr 500 ------- 0 0.0 1.0 137 137
r 0.238 0 1 cbr 500 ------- 0 0.0 1.0 68 68
+ 0.238 0 1 cbr 500 ------- 0 0.0 1.0 138 138
d 0.238 0 1 cbr 500 ------- 0 0.0 1.0 138 138
+ 0.239 0 1 cbr 500 ------- 0 0.0 1.0 139 139
d 0.239 0 1 cbr 500 ------- 0 0.0 1.0 139 139
- 0.24 0 1 cbr 500 ------- 0 0.0 1.0 84 84
+ 0.24 0 1 cbr 500 ------- 0 0.0 1.0 140 140
+ 0.241 0 1 cbr 500 ------- 0 0.0 1.0 141 141
d 0.241 0 1 cbr 500 ------- 0 0.0 1.0 141 141
r 0.242 0 1 cbr 500 ------- 0 0.0 1.0 72 72
+ 0.242 0 1 cbr 500 ------- 0 0.0 1.0 142 142
d 0.242 0 1 cbr 500 ------- 0 0.0 1.0 142 142
+ 0.243 0 1 cbr 500 ------- 0 0.0 1.0 143 143
d 0.243 0 1 cbr 500 ------- 0 0.0 1.0 143 143
- 0.244 0 1 cbr 500 ------- 0 0.0 1.0 88 88
+ 0.244 0 1 cbr 500 ------- 0 0.0 1.0 144 144
+ 0.245 0 1 cbr 500 ------- 0 0.0 1.0 145 145
d 0.245 0 1 cbr 500 ------- 0 0.0 1.0 145 145
r 0.246 0 1 cbr 500 ------- 0 0.0 1.0 76 76
+ 0.246 0 1 cbr 500 ------- 0 0.0 1.0 146 146
d 0.246 0 1 cbr 500 ------- 0 0.0 1.0 146 146
+ 0.247 0 1 cbr 500 ------- 0 0.0 1.0 147 147
d 0.247 0 1 cbr 500 ------- 0 0.0 1.0 147 147
- 0.248 0 1 cbr 500 ------- 0 0.0 1.0 92 92
+ 0.248 0 1 cbr 500 ------- 0 0.0 1.0 148 148
+ 0.249 0 1 cbr 500 ------- 0 0.0 1.0 149 149
d 0.249 0 1 cbr 500 ------- 0 0.0 1.0 149 149
r 0.25 0 1 cbr 500 ------- 0 0.0 1.0 80 80
+ 0.25 0 1 cbr 500 ------- 0 0.0 1.0 150 150
d 0.25 0 1 cbr 500 ------- 0 0.0 1.0 150 150
+ 0.251 0 1 cbr 500 ------- 0 0.0 1.0 151 151
d 0.251 0 1 cbr 500 ------- 0 0.0 1.0 151 151
- 0.252 0 1 cbr 500 ------- 0 0.0 1.0 96 96
+ 0.252 0 1 cbr 500 ------- 0 0.0 1.0 152 152
+ 0.253 0 1 cbr 500 ------- 0 0.0 1.0 153 153
d 0.253 0 1 cbr 500 ------- 0 0.0 1.0 153 153
r 0.254 0 1 cbr 500 ------- 0 0.0 1.0 84 84
+ 0.254 0 1 cbr 500 ------- 0 0.0 1.0 154 154
d 0.254 0 1 cbr 500 ------- 0 0.0 1.0 154 154
+ 0.255 0 1 cbr 500 ------- 0 0.0 1.0 155 155
d 0.255 0 1 cbr 500 ------- 0 0.0 1.0 155 155
- 0.256 0 1 cbr 500 ------- 0 0.0 1.0 100 100
+ 0.256 0 1 cbr 500 ------- 0 0.0 1.0 156 156
+ 0.257 0 1 cbr 500 ------- 0 0.0 1.0 157 157
d 0.257 0 1 cbr 500 ------- 0 0.0 1.0 157 157
r 0.258 0 1 cbr 500 ------- 0 0.0 1.0 88 88
+ 0.258 0 1 cbr 500 ------- 0 0.0 1.0 158 158
d 0.258 0 1 cbr 500 ------- 0 0.0 1.0 158 158
+ 0.259 0 1 cbr 500 ------- 0 0.0 1.0 159 159
d 0.259 0 1 cbr 500 ------- 0 0.0 1.0 159 159
- 0.26 0 1 cbr 500 ------- 0 0.0 1.0 104 104
+ 0.26 0 1 cbr 500 ------- 0 0.0 1.0 160 160
+ 0.261 0 1 cbr 500 ------- 0 0.0 1.0 161 161
d 0.261 0 1 cbr 500 ------- 0 0.0 1.0 161 161
r 0.262 0 1 cbr 500 ------- 0 0.0 1.0 92 92
+ 0.262 0 1 cbr 500 ------- 0 0.0 1.0 162 162
d 0.262 0 1 cbr 500 ------- 0 0.0 1.0 162 162
+ 0.263 0 1 cbr 500 ------- 0 0.0 1.0 163 163
d 0.263 0 1 cbr 500 ------- 0 0.0 1.0 163 163
- 0.264 0 1 cbr 500 ------- 0 0.0 1.0 108 108
+ 0.264 0 1 cbr 500 ------- 0 0.0 1.0 164 164
+ 0.265 0 1 cbr 500 ------- 0 0.0 1.0 165 165
d 0.265 0 1 cbr 500 ------- 0 0.0 1.0 165 165
r 0.266 0 1 cbr 500 ------- 0 0.0 1.0 96 96
+ 0.266 0 1 cbr 500 ------- 0 0.0 1.0 166 166
d 0.266 0 1 cbr 500 ------- 0 0.0 1.0 166 166
+ 0.267 0 1 cbr 500 ------- 0 0.0 1.0 167 167
d 0.267 0 1 cbr 500 ------- 0 0.0 1.0 167 167
- 0.268 0 1 cbr 500 ------- 0 0.0 1.0 112 112
+ 0.268 0 1 cbr 500 ------- 0 0.0 1.0 168 168
+ 0.269 0 1 cbr 500 ------- 0 0.0 1.0 169 169
d 0.269 0 1 cbr 500 ------- 0 0.0 1.0 169 169
r 0.27 0 1 cbr 500 ------- 0 0.0 1.0 100 100
+ 0.27 0 1 cbr 500 ------- 0 0.0 1.0 170 170
d 0.27 0 1 cbr 500 ------- 0 0.0 1.0 170 170
+ 0.271 0 1 cbr 500 ------- 0 0.0 1.0 171 171
d 0.271 0 1 cbr 500 ------- 0 0.0 1.0 171 171
- 0.272 0 1 cbr 500 ------- 0 0.0 1.0 116 116
+ 0.272 0 1 cbr 500 ------- 0 0.0 1.0 172 172
+ 0.273 0 1 cbr 500 ------- 0 0.0 1.0 173 173
d 0.273 0 1 cbr 500 ------- 0 0.0 1.0 173 173
r 0.274 0 1 cbr 500 ------- 0 0.0 1.0 104 104
+ 0.274 0 1 cbr 500 ------- 0 0.0 1.0 174 174
d 0.274 0 1 cbr 500 ------- 0 0.0 1.0 174 174
+ 0.275 0 1 cbr 500 ------- 0 0.0 1.0 175 175
d 0.275 0 1 cbr 500 ------- 0 0.0 1.0 175 175
- 0.276 0 1 cbr 500 ------- 0 0.0 1.0 120 120
+ 0.276 0 1 cbr 500 ------- 0 0.0 1.0 176 176
+ 0.277 0 1 cbr 500 ------- 0 0.0 1.0 177 177
d 0.277 0 1 cbr 500 ------- 0 0.0 1.0 177 177
r 0.278 0 1 cbr 500 ------- 0 0.0 1.0 108 108
+ 0.278 0 1 cbr 500 ------- 0 0.0 1.0 178 178
d 0.278 0 1 cbr 500 ------- 0 0.0 1.0 178 178
+ 0.279 0 1 cbr 500 ------- 0 0.0 1.0 179 179
d 0.279 0 1 cbr 500 ------- 0 0.0 1.0 179 179
- 0.28 0 1 cbr 500 ------- 0 0.0 1.0 124 124
+ 0.28 0 1 cbr 500 ------- 0 0.0 1.0 180 180
+ 0.281 0 1 cbr 500 ------- 0 0.0 1.0 181 181
d 0.281 0 1 cbr 500 ------- 0 0.0 1.0 181 181
r 0.282 0 1 cbr 500 ------- 0 0.0 1.0 112 112
+ 0.282 0 1 cbr 500 ------- 0 0.0 1.0 182 182
d 0.282 0 1 cbr 500 ------- 0 0.0 1.0 182 182
+ 0.283 0 1 cbr 500 ------- 0 0.0 1.0 183 183
d 0.283 0 1 cbr 500 ------- 0 0.0 1.0 183 183
- 0.284 0 1 cbr 500 ------- 0 0.0 1.0 128 128
+ 0.284 0 1 cbr 500 ------- 0 0.0 1.0 184 184
+ 0.285 0 1 cbr 500 ------- 0 0.0 1.0 185 185
d 0.285 0 1 cbr 500 ------- 0 0.0 1.0 185 185
r 0.286 0 1 cbr 500 ------- 0 0.0 1.0 116 116
+ 0.286 0 1 cbr 500 ------- 0 0.0 1.0 186 186
d 0.286 0 1 cbr 500 ------- 0 0.0 1.0 186 186
+ 0.287 0 1 cbr 500 ------- 0 0.0 1.0 187 187
d 0.287 0 1 cbr 500 ------- 0 0.0 1.0 187 187
- 0.288 0 1 cbr 500 ------- 0 0.0 1.0 132 132
+ 0.288 0 1 cbr 500 ------- 0 0.0 1.0 188 188
+ 0.289 0 1 cbr 500 ------- 0 0.0 1.0 189 189
d 0.289 0 1 cbr 500 ------- 0 0.0 1.0 189 189
r 0.29 0 1 cbr 500 ------- 0 0.0 1.0 120 120
+ 0.29 0 1 cbr 500 ------- 0 0.0 1.0 190 190
d 0.29 0 1 cbr 500 ------- 0 0.0 1.0 190 190
+ 0.291 0 1 cbr 500 ------- 0 0.0 1.0 191 191
d 0.291 0 1 cbr 500 ------- 0 0.0 1.0 191 191
- 0.292 0 1 cbr 500 ------- 0 0.0 1.0 136 136
+ 0.292 0 1 cbr 500 ------- 0 0.0 1.0 192 192
+ 0.293 0 1 cbr 500 ------- 0 0.0 1.0 193 193
d 0.293 0 1 cbr 500 ------- 0 0.0 1.0 193 193
r 0.294 0 1 cbr 500 ------- 0 0.0 1.0 124 124
+ 0.294 0 1 cbr 500 ------- 0 0.0 1.0 194 194
d 0.294 0 1 cbr 500 ------- 0 0.0 1.0 194 194
+ 0.295 0 1 cbr 500 ------- 0 0.0 1.0 195 195
d 0.295 0 1 cbr 500 ------- 0 0.0 1.0 195 195
- 0.296 0 1 cbr 500 ------- 0 0.0 1.0 140 140
+ 0.296 0 1 cbr 500 ------- 0 0.0 1.0 196 196
+ 0.297 0 1 cbr 500 ------- 0 0.0 1.0 197 197
d 0.297 0 1 cbr 500 ------- 0 0.0 1.0 197 197
r 0.298 0 1 cbr 500 ------- 0 0.0 1.0 128 128
+ 0.298 0 1 cbr 500 ------- 0 0.0 1.0 198 198
d 0.298 0 1 cbr 500 ------- 0 0.0 1.0 198 198
+ 0.299 0 1 cbr 500 ------- 0 0.0 1.0 199 199
d 0.299 0 1 cbr 500 ------- 0 0.0 1.0 199 199
- 0.3 0 1 cbr 500 ------- 0 0.0 1.0 144 144
+ 0.3 0 1 cbr 500 ------- 0 0.0 1.0 200 200
+ 0.301 0 1 cbr 500 ------- 0 0.0 1.0 201 201
d 0.301 0 1 cbr 500 ------- 0 0.0 1.0 201 201
r 0.302 0 1 cbr 500 ------- 0 0.0 1.0 132 132
+ 0.302 0 1 cbr 500 ------- 0 0.0 1.0 202 202
d 0.302 0 1 cbr 500 ------- 0 0.0 1.0 202 202
+ 0.303 0 1 cbr 500 ------- 0 0.0 1.0 203 203
d 0.303 0 1 cbr 500 ------- 0 0.0 1.0 203 203
- 0.304 0 1 cbr 500 ------- 0 0.0 1.0 148 148
+ 0.304 0 1 cbr 500 ------- 0 0.0 1.0 204 204
+ 0.305 0 1 cbr 500 ------- 0 0.0 1.0 205 205
d 0.305 0 1 cbr 500 ------- 0 0.0 1.0 205 205
r 0.306 0 1 cbr 500 ------- 0 0.0 1.0 136 136
+ 0.306 0 1 cbr 500 ------- 0 0.0 1.0 206 206
d 0.306 0 1 cbr 500 ------- 0 0.0 1.0 206 206
+ 0.307 0 1 cbr 500 ------- 0 0.0 1.0 207 207
d 0.307 0 1 cbr 500 ------- 0 0.0 1.0 207 207
- 0.308 0 1 cbr 500 ------- 0 0.0 1.0 152 152
+ 0.308 0 1 cbr 500 ------- 0 0.0 1.0 208 208
+ 0.309 0 1 cbr 500 ------- 0 0.0 1.0 209 209
d 0.309 0 1 cbr 500 ------- 0 0.0 1.0 209 209
r 0.31 0 1 cbr 500 ------- 0 0.0 1.0 140 140
+ 0.31 0 1 cbr 500 ------- 0 0.0 1.0 210 210
d 0.31 0 1 cbr 500 ------- 0 0.0 1.0 210 210
+ 0.311 0 1 cbr 500 ------- 0 0.0 1.0 211 211
d 0.311 0 1 cbr 500 ------- 0 0.0 1.0 211 211
- 0.312 0 1 cbr 500 ------- 0 0.0 1.0 156 156
+ 0.312 0 1 cbr 500 ------- 0 0.0 1.0 212 212
+ 0.313 0 1 cbr 500 ------- 0 0.0 1.0 213 213
d 0.313 0 1 cbr 500 ------- 0 0.0 1.0 213 213
r 0.314 0 1 cbr 500 ------- 0 0.0 1.0 144 144
+ 0.314 0 1 cbr 500 ------- 0 0.0 1.0 214 214
d 0.314 0 1 cbr 500 ------- 0 0.0 1.0 214 214
+ 0.315 0 1 cbr 500 ------- 0 0.0 1.0 215 215
d 0.315 0 1 cbr 500 ------- 0 0.0 1.0 215 215
- 0.316 0 1 cbr 500 ------- 0 0.0 1.0 160 160
+ 0.316 0 1 cbr 500 ------- 0 0.0 1.0 216 216
+ 0.317 0 1 cbr 500 ------- 0 0.0 1.0 217 217
d 0.317 0 1 cbr 500 ------- 0 0.0 1.0 217 217
r 0.318 0 1 cbr 500 ------- 0 0.0 1.0 148 148
+ 0.318 0 1 cbr 500 ------- 0 0.0 1.0 218 218
d 0.318 0 1 cbr 500 ------- 0 0.0 1.0 218 218
+ 0.319 0 1 cbr 500 ------- 0 0.0 1.0 219 219
d 0.319 0 1 cbr 500 ------- 0 0.0 1.0 219 219
- 0.32 0 1 cbr 500 ------- 0 0.0 1.0 164 164
+ 0.32 0 1 cbr 500 ------- 0 0.0 1.0 220 220
+ 0.321 0 1 cbr 500 ------- 0 0.0 1.0 221 221
d 0.321 0 1 cbr 500 ------- 0 0.0 1.0 221 221
r 0.322 0 1 cbr 500 ------- 0 0.0 1.0 152 152
+ 0.322 0 1 cbr 500 ------- 0 0.0 1.0 222 222
d 0.322 0 1 cbr 500 ------- 0 0.0 1.0 222 222
+ 0.323 0 1 cbr 500 ------- 0 0.0 1.0 223 223
d 0.323 0 1 cbr 500 ------- 0 0.0 1.0 223 223
- 0.324 0 1 cbr 500 ------- 0 0.0 1.0 168 168
+ 0.324 0 1 cbr 500 ------- 0 0.0 1.0 224 224
+ 0.325 0 1 cbr 500 ------- 0 0.0 1.0 225 225
d 0.325 0 1 cbr 500 ------- 0 0.0 1.0 225 225
r 0.326 0 1 cbr 500 ------- 0 0.0 1.0 156 156
+ 0.326 0 1 cbr 500 ------- 0 0.0 1.0 226 226
d 0.326 0 1 cbr 500 ------- 0 0.0 1.0 226 226
+ 0.327 0 1 cbr 500 ------- 0 0.0 1.0 227 227
d 0.327 0 1 cbr 500 ------- 0 0.0 1.0 227 227
- 0.328 0 1 cbr 500 ------- 0 0.0 1.0 172 172
+ 0.328 0 1 cbr 500 ------- 0 0.0 1.0 228 228
+ 0.329 0 1 cbr 500 ------- 0 0.0 1.0 229 229
d 0.329 0 1 cbr 500 ------- 0 0.0 1.0 229 229
r 0.33 0 1 cbr 500 ------- 0 0.0 1.0 160 160
+ 0.33 0 1 cbr 500 ------- 0 0.0 1.0 230 230
d 0.33 0 1 cbr 500 ------- 0 0.0 1.0 230 230
+ 0.331 0 1 cbr 500 ------- 0 0.0 1.0 231 231
d 0.331 0 1 cbr 500 ------- 0 0.0 1.0 231 231
- 0.332 0 1 cbr 500 ------- 0 0.0 1.0 176 176
+ 0.332 0 1 cbr 500 ------- 0 0.0 1.0 232 232
+ 0.333 0 1 cbr 500 ------- 0 0.0 1.0 233 233
d 0.333 0 1 cbr 500 ------- 0 0.0 1.0 233 233
r 0.334 0 1 cbr 500 ------- 0 0.0 1.0 164 164
+ 0.334 0 1 cbr 500 ------- 0 0.0 1.0 234 234
d 0.334 0 1 cbr 500 ------- 0 0.0 1.0 234 234
+ 0.335 0 1 cbr 500 ------- 0 0.0 1.0 235 235
d 0.335 0 1 cbr 500 ------- 0 0.0 1.0 235 235
- 0.336 0 1 cbr 500 ------- 0 0.0 1.0 180 180
+ 0.336 0 1 cbr 500 ------- 0 0.0 1.0 236 236
+ 0.337 0 1 cbr 500 ------- 0 0.0 1.0 237 237
d 0.337 0 1 cbr 500 ------- 0 0.0 1.0 237 237
r 0.338 0 1 cbr 500 ------- 0 0.0 1.0 168 168
+ 0.338 0 1 cbr 500 ------- 0 0.0 1.0 238 238
d 0.338 0 1 cbr 500 ------- 0 0.0 1.0 238 238
+ 0.339 0 1 cbr 500 ------- 0 0.0 1.0 239 239
d 0.339 0 1 cbr 500 ------- 0 0.0 1.0 239 239
- 0.34 0 1 cbr 500 ------- 0 0.0 1.0 184 184
+ 0.34 0 1 cbr 500 ------- 0 0.0 1.0 240 240
+ 0.341 0 1 cbr 500 ------- 0 0.0 1.0 241 241
d 0.341 0 1 cbr 500 ------- 0 0.0 1.0 241 241
r 0.342 0 1 cbr 500 ------- 0 0.0 1.0 172 172
+ 0.342 0 1 cbr 500 ------- 0 0.0 1.0 242 242
d 0.342 0 1 cbr 500 ------- 0 0.0 1.0 242 242
+ 0.343 0 1 cbr 500 ------- 0 0.0 1.0 243 243
d 0.343 0 1 cbr 500 ------- 0 0.0 1.0 243 243
- 0.344 0 1 cbr 500 ------- 0 0.0 1.0 188 188
+ 0.344 0 1 cbr 500 ------- 0 0.0 1.0 244 244
+ 0.345 0 1 cbr 500 ------- 0 0.0 1.0 245 245
d 0.345 0 1 cbr 500 ------- 0 0.0 1.0 245 245
r 0.346 0 1 cbr 500 ------- 0 0.0 1.0 176 176
+ 0.346 0 1 cbr 500 ------- 0 0.0 1.0 246 246
d 0.346 0 1 cbr 500 ------- 0 0.0 1.0 246 246
+ 0.347 0 1 cbr 500 ------- 0 0.0 1.0 247 247
d 0.347 0 1 cbr 500 ------- 0 0.0 1.0 247 247
- 0.348 0 1 cbr 500 ------- 0 0.0 1.0 192 192
+ 0.348 0 1 cbr 500 ------- 0 0.0 1.0 248 248
+ 0.349 0 1 cbr 500 ------- 0 0.0 1.0 249 249
d 0.349 0 1 cbr 500 ------- 0 0.0 1.0 249 249
r 0.35 0 1 cbr 500 ------- 0 0.0 1.0 180 180
+ 0.35 0 1 cbr 500 ------- 0 0.0 1.0 250 250
d 0.35 0 1 cbr 500 ------- 0 0.0 1.0 250 250
+ 0.351 0 1 cbr 500 ------- 0 0.0 1.0 251 251
d 0.351 0 1 cbr 500 ------- 0 0.0 1.0 251 251
- 0.352 0 1 cbr 500 ------- 0 0.0 1.0 196 196
+ 0.352 0 1 cbr 500 ------- 0 0.0 1.0 252 252
+ 0.353 0 1 cbr 500 ------- 0 0.0 1.0 253 253
d 0.353 0 1 cbr 500 ------- 0 0.0 1.0 253 253
r 0.354 0 1 cbr 500 ------- 0 0.0 1.0 184 184
+ 0.354 0 1 cbr 500 ------- 0 0.0 1.0 254 254
d 0.354 0 1 cbr 500 ------- 0 0.0 1.0 254 254
+ 0.355 0 1 cbr 500 ------- 0 0.0 1.0 255 255
d 0.355 0 1 cbr 500 ------- 0 0.0 1.0 255 255
- 0.356 0 1 cbr 500 ------- 0 0.0 1.0 200 200
+ 0.356 0 1 cbr 500 ------- 0 0.0 1.0 256 256
+ 0.357 0 1 cbr 500 ------- 0 0.0 1.0 257 257
d 0.357 0 1 cbr 500 ------- 0 0.0 1.0 257 257
r 0.358 0 1 cbr 500 ------- 0 0.0 1.0 188 188
+ 0.358 0 1 cbr 500 ------- 0 0.0 1.0 258 258
d 0.358 0 1 cbr 500 ------- 0 0.0 1.0 258 258
+ 0.359 0 1 cbr 500 ------- 0 0.0 1.0 259 259
d 0.359 0 1 cbr 500 ------- 0 0.0 1.0 259 259
- 0.36 0 1 cbr 500 ------- 0 0.0 1.0 204 204
+ 0.36 0 1 cbr 500 ------- 0 0.0 1.0 260 260
+ 0.361 0 1 cbr 500 ------- 0 0.0 1.0 261 261
d 0.361 0 1 cbr 500 ------- 0 0.0 1.0 261 261
r 0.362 0 1 cbr 500 ------- 0 0.0 1.0 192 192
+ 0.362 0 1 cbr 500 ------- 0 0.0 1.0 262 262
d 0.362 0 1 cbr 500 ------- 0 0.0 1.0 262 262
+ 0.363 0 1 cbr 500 ------- 0 0.0 1.0 263 263
d 0.363 0 1 cbr 500 ------- 0 0.0 1.0 263 263
- 0.364 0 1 cbr 500 ------- 0 0.0 1.0 208 208
+ 0.364 0 1 cbr 500 ------- 0 0.0 1.0 264 264
+ 0.365 0 1 cbr 500 ------- 0 0.0 1.0 265 265
d 0.365 0 1 cbr 500 ------- 0 0.0 1.0 265 265
r 0.366 0 1 cbr 500 ------- 0 0.0 1.0 196 196
+ 0.366 0 1 cbr 500 ------- 0 0.0 1.0 266 266
d 0.366 0 1 cbr 500 ------- 0 0.0 1.0 266 266
+ 0.367 0 1 cbr 500 ------- 0 0.0 1.0 267 267
d 0.367 0 1 cbr 500 ------- 0 0.0 1.0 267 267
- 0.368 0 1 cbr 500 ------- 0 0.0 1.0 212 212
+ 0.368 0 1 cbr 500 ------- 0 0.0 1.0 268 268
+ 0.369 0 1 cbr 500 ------- 0 0.0 1.0 269 269
d 0.369 0 1 cbr 500 ------- 0 0.0 1.0 269 269
r 0.37 0 1 cbr 500 ------- 0 0.0 1.0 200 200
+ 0.37 0 1 cbr 500 ------- 0 0.0 1.0 270 270
d 0.37 0 1 cbr 500 ------- 0 0.0 1.0 270 270
+ 0.371 0 1 cbr 500 ------- 0 0.0 1.0 271 271
d 0.371 0 1 cbr 500 ------- 0 0.0 1.0 271 271
- 0.372 0 1 cbr 500 ------- 0 0.0 1.0 216 216
+ 0.372 0 1 cbr 500 ------- 0 0.0 1.0 272 272
+ 0.373 0 1 cbr 500 ------- 0 0.0 1.0 273 273
d 0.373 0 1 cbr 500 ------- 0 0.0 1.0 273 273
r 0.374 0 1 cbr 500 ------- 0 0.0 1.0 204 204
+ 0.374 0 1 cbr 500 ------- 0 0.0 1.0 274 274
d 0.374 0 1 cbr 500 ------- 0 0.0 1.0 274 274
+ 0.375 0 1 cbr 500 ------- 0 0.0 1.0 275 275
d 0.375 0 1 cbr 500 ------- 0 0.0 1.0 275 275
- 0.376 0 1 cbr 500 ------- 0 0.0 1.0 220 220
+ 0.376 0 1 cbr 500 ------- 0 0.0 1.0 276 276
+ 0.377 0 1 cbr 500 ------- 0 0.0 1.0 277 277
d 0.377 0 1 cbr 500 ------- 0 0.0 1.0 277 277
r 0.378 0 1 cbr 500 ------- 0 0.0 1.0 208 208
+ 0.378 0 1 cbr 500 ------- 0 0.0 1.0 278 278
d 0.378 0 1 cbr 500 ------- 0 0.0 1.0 278 278
+ 0.379 0 1 cbr 500 ------- 0 0.0 1.0 279 279
d 0.379 0 1 cbr 500 ------- 0 0.0 1.0 279 279
- 0.38 0 1 cbr 500 ------- 0 0.0 1.0 224 224
+ 0.38 0 1 cbr 500 ------- 0 0.0 1.0 280 280
+ 0.381 0 1 cbr 500 ------- 0 0.0 1.0 281 281
d 0.381 0 1 cbr 500 ------- 0 0.0 1.0 281 281
r 0.382 0 1 cbr 500 ------- 0 0.0 1.0 212 212
+ 0.382 0 1 cbr 500 ------- 0 0.0 1.0 282 282
d 0.382 0 1 cbr 500 ------- 0 0.0 1.0 282 282
+ 0.383 0 1 cbr 500 ------- 0 0.0 1.0 283 283
d 0.383 0 1 cbr 500 ------- 0 0.0 1.0 283 283
- 0.384 0 1 cbr 500 ------- 0 0.0 1.0 228 228
+ 0.384 0 1 cbr 500 ------- 0 0.0 1.0 284 284
+ 0.385 0 1 cbr 500 ------- 0 0.0 1.0 285 285
d 0.385 0 1 cbr 500 ------- 0 0.0 1.0 285 285
r 0.386 0 1 cbr 500 ------- 0 0.0 1.0 216 216
+ 0.386 0 1 cbr 500 ------- 0 0.0 1.0 286 286
d 0.386 0 1 cbr 500 ------- 0 0.0 1.0 286 286
+ 0.387 0 1 cbr 500 ------- 0 0.0 1.0 287 287
d 0.387 0 1 cbr 500 ------- 0 0.0 1.0 287 287
- 0.388 0 1 cbr 500 ------- 0 0.0 1.0 232 232
+ 0.388 0 1 cbr 500 ------- 0 0.0 1.0 288 288
+ 0.389 0 1 cbr 500 ------- 0 0.0 1.0 289 289
d 0.389 0 1 cbr 500 ------- 0 0.0 1.0 289 289
r 0.39 0 1 cbr 500 ------- 0 0.0 1.0 220 220
+ 0.39 0 1 cbr 500 ------- 0 0.0 1.0 290 290
d 0.39 0 1 cbr 500 ------- 0 0.0 1.0 290 290
+ 0.391 0 1 cbr 500 ------- 0 0.0 1.0 291 291
d 0.391 0 1 cbr 500 ------- 0 0.0 1.0 291 291
- 0.392 0 1 cbr 500 ------- 0 0.0 1.0 236 236
+ 0.392 0 1 cbr 500 ------- 0 0.0 1.0 292 292
+ 0.393 0 1 cbr 500 ------- 0 0.0 1.0 293 293
d 0.393 0 1 cbr 500 ------- 0 0.0 1.0 293 293
r 0.394 0 1 cbr 500 ------- 0 0.0 1.0 224 224
+ 0.394 0 1 cbr 500 ------- 0 0.0 1.0 294 294
d 0.394 0 1 cbr 500 ------- 0 0.0 1.0 294 294
+ 0.395 0 1 cbr 500 ------- 0 0.0 1.0 295 295
d 0.395 0 1 cbr 500 ------- 0 0.0 1.0 295 295
- 0.396 0 1 cbr 500 ------- 0 0.0 1.0 240 240
+ 0.396 0 1 cbr 500 ------- 0 0.0 1.0 296 296
+ 0.397 0 1 cbr 500 ------- 0 0.0 1.0 297 297
d 0.397 0 1 cbr 500 ------- 0 0.0 1.0 297 297
r 0.398 0 1 cbr 500 ------- 0 0.0 1.0 228 228
+ 0.398 0 1 cbr 500 ------- 0 0.0 1.0 298 298
d 0.398 0 1 cbr 500 ------- 0 0.0 1.0 298 298
+ 0.399 0 1 cbr 500 ------- 0 0.0 1.0 299 299
d 0.399 0 1 cbr 500 ------- 0 0.0 1.0 299 299
- 0.4 0 1 cbr 500 ------- 0 0.0 1.0 244 244
+ 0.4 0 1 cbr 500 ------- 0 0.0 1.0 300 300
+ 0.401 0 1 cbr 500 ------- 0 0.0 1.0 301 301
d 0.401 0 1 cbr 500 ------- 0 0.0 1.0 301 301
r 0.402 0 1 cbr 500 ------- 0 0.0 1.0 232 232
+ 0.402 0 1 cbr 500 ------- 0 0.0 1.0 302 302
d 0.402 0 1 cbr 500 ------- 0 0.0 1.0 302 302