V -t * -v 1.0a5 -a 0
A -t * -n 1 -p 0 -o 0x7fffffff -c 30 -a 1
A -t * -h 1 -m 1073741823 -s 0
n -t * -a 4 -s 4 -S UP -v circle -c black -i black
n -t * -a 0 -s 0 -S UP -v circle -c black -i black
n -t * -a 1 -s 1 -S UP -v circle -c black -i black
n -t * -a 2 -s 2 -S UP -v circle -c black -i black
n -t * -a 3 -s 3 -S UP -v circle -c black -i black
l -t * -s 0 -d 1 -S UP -r 10000000 -D 0.01 -c black
l -t * -s 1 -d 2 -S UP -r 10000000 -D 0.01 -c black
l -t * -s 1 -d 3 -S UP -r 10000000 -D 0.014999999999999999 -c black
l -t * -s 2 -d 4 -S UP -r 10000000 -D 0.02 -c black
l -t * -s 3 -d 4 -S UP -r 10000000 -D 0.025000000000000001 -c black
+ -t 0.000169788487334637 -s 0 -d 1 -p rtProtoLS -e 100 -c 0 -i 0 -a 0 -x {0.2 1.1 -1 ------- null}
- -t 0.000169788487334637 -s 0 -d 1 -p rtProtoLS -e 100 -c 0 -i 0 -a 0 -x {0.2 1.1 -1 ------- null}
h -t 0.000169788487334637 -s 0 -d 1 -p rtProtoLS -e 100 -c 0 -i 0 -a 0 -x {0.2 1.1 -1 ------- null}
+ -t 0.00710233021858257 -s 2 -d 1 -p rtProtoLS -e 100 -c 0 -i 1 -a 0 -x {2.1 1.1 -1 ------- null}
- -t 0.00710233021858257 -s 2 -d 1 -p rtProtoLS -e 100 -c 0 -i 1 -a 0 -x {2.1 1.1 -1 ------- null}
h -t 0.00710233021858257 -s 2 -d 1 -p rtProtoLS -e 100 -c 0 -i 1 -a 0 -x {2.1 1.1 -1 ------- null}
+ -t 0.00710233021858257 -s 2 -d 4 -p rtProtoLS -e 100 -c 0 -i 2 -a 0 -x {2.1 4.2 -1 ------- null}
- -t 0.00710233021858257 -s 2 -d 4 -p rtProtoLS -e 100 -c 0 -i 2 -a 0 -x {2.1 4.2 -1 ------- null}
h -t 0.00710233021858257 -s 2 -d 4 -p rtProtoLS -e 100 -c 0 -i 2 -a 0 -x {2.1 4.2 -1 ------- null}
r -t 0.0102497884873346 -s 0 -d 1 -p rtProtoLS -e 100 -c 0 -i 0 -a 0 -x {0.2 1.1 -1 ------- null}
+ -t 0.0102497884873346 -s 1 -d 0 -p rtProtoLS -e 20 -c 0 -i 3 -a 0 -x {1.1 0.2 -1 ------- null}
- -t 0.0102497884873346 -s 1 -d 0 -p rtProtoLS -e 20 -c 0 -i 3 -a 0 -x {1.1 0.2 -1 ------- null}
h -t 0.0102497884873346 -s 1 -d 0 -p rtProtoLS -e 20 -c 0 -i 3 -a 0 -x {1.1 0.2 -1 ------- null}
+ -t 0.0102497884873346 -s 1 -d 2 -p rtProtoLS -e 100 -c 0 -i 4 -a 0 -x {1.1 2.1 -1 ------- null}
- -t 0.0102497884873346 -s 1 -d 2 -p rtProtoLS -e 100 -c 0 -i 4 -a 0 -x {1.1 2.1 -1 ------- null}
h -t 0.0102497884873346 -s 1 -d 2 -p rtProtoLS -e 100 -c 0 -i 4 -a 0 -x {1.1 2.1 -1 ------- null}
+ -t 0.0102497884873346 -s 1 -d 3 -p rtProtoLS -e 100 -c 0 -i 5 -a 0 -x {1.1 3.1 -1 ------- null}
- -t 0.0102497884873346 -s 1 -d 3 -p rtProtoLS -e 100 -c 0 -i 5 -a 0 -x {1.1 3.1 -1 ------- null}
h -t 0.0102497884873346 -s 1 -d 3 -p rtProtoLS -e 100 -c 0 -i 5 -a 0 -x {1.1 3.1 -1 ------- null}
r -t 0.0171823302185826 -s 2 -d 1 -p rtProtoLS -e 100 -c 0 -i 1 -a 0 -x {2.1 1.1 -1 ------- null}
+ -t 0.0171823302185826 -s 1 -d 2 -p rtProtoLS -e 20 -c 0 -i 6 -a 0 -x {1.1 2.1 -1 ------- null}
- -t 0.0171823302185826 -s 1 -d 2 -p rtProtoLS -e 20 -c 0 -i 6 -a 0 -x {1.1 2.1 -1 ------- null}
h -t 0.0171823302185826 -s 1 -d 2 -p rtProtoLS -e 20 -c 0 -i 6 -a 0 -x {1.1 2.1 -1 ------- null}
+ -t 0.0171823302185826 -s 1 -d 0 -p rtProtoLS -e 100 -c 0 -i 7 -a 0 -x {1.1 0.2 -1 ------- null}
- -t 0.0171823302185826 -s 1 -d 0 -p rtProtoLS -e 100 -c 0 -i 7 -a 0 -x {1.1 0.2 -1 ------- null}
h -t 0.0171823302185826 -s 1 -d 0 -p rtProtoLS -e 100 -c 0 -i 7 -a 0 -x {1.1 0.2 -1 ------- null}
+ -t 0.0171823302185826 -s 1 -d 3 -p rtProtoLS -e 100 -c 0 -i 8 -a 0 -x {1.1 3.1 -1 ------- null}
- -t 0.0171823302185826 -s 1 -d 3 -p rtProtoLS -e 100 -c 0 -i 8 -a 0 -x {1.1 3.1 -1 ------- null}
h -t 0.0171823302185826 -s 1 -d 3 -p rtProtoLS -e 100 -c 0 -i 8 -a 0 -x {1.1 3.1 -1 ------- null}
r -t 0.0202657884873346 -s 1 -d 0 -p rtProtoLS -e 20 -c 0 -i 3 -a 0 -x {1.1 0.2 -1 ------- null}
r -t 0.0203297884873346 -s 1 -d 2 -p rtProtoLS -e 100 -c 0 -i 4 -a 0 -x {1.1 2.1 -1 ------- null}
+ -t 0.0203297884873346 -s 2 -d 1 -p rtProtoLS -e 20 -c 0 -i 9 -a 0 -x {2.1 1.1 -1 ------- null}
- -t 0.0203297884873346 -s 2 -d 1 -p rtProtoLS -e 20 -c 0 -i 9 -a 0 -x {2.1 1.1 -1 ------- null}
h -t 0.0203297884873346 -s 2 -d 1 -p rtProtoLS -e 20 -c 0 -i 9 -a 0 -x {2.1 1.1 -1 ------- null}
+ -t 0.0203297884873346 -s 2 -d 4 -p rtProtoLS -e 100 -c 0 -i 10 -a 0 -x {2.1 4.2 -1 ------- null}
- -t 0.0203297884873346 -s 2 -d 4 -p rtProtoLS -e 100 -c 0 -i 10 -a 0 -x {2.1 4.2 -1 ------- null}
h -t 0.0203297884873346 -s 2 -d 4 -p rtProtoLS -e 100 -c 0 -i 10 -a 0 -x {2.1 4.2 -1 ------- null}
r -t 0.0253297884873346 -s 1 -d 3 -p rtProtoLS -e 100 -c 0 -i 5 -a 0 -x {1.1 3.1 -1 ------- null}
+ -t 0.0253297884873346 -s 3 -d 1 -p rtProtoLS -e 20 -c 0 -i 11 -a 0 -x {3.1 1.1 -1 ------- null}
- -t 0.0253297884873346 -s 3 -d 1 -p rtProtoLS -e 20 -c 0 -i 11 -a 0 -x {3.1 1.1 -1 ------- null}
h -t 0.0253297884873346 -s 3 -d 1 -p rtProtoLS -e 20 -c 0 -i 11 -a 0 -x {3.1 1.1 -1 ------- null}
+ -t 0.0253297884873346 -s 3 -d 4 -p rtProtoLS -e 100 -c 0 -i 12 -a 0 -x {3.1 4.2 -1 ------- null}
- -t 0.0253297884873346 -s 3 -d 4 -p rtProtoLS -e 100 -c 0 -i 12 -a 0 -x {3.1 4.2 -1 ------- null}
h -t 0.0253297884873346 -s 3 -d 4 -p rtProtoLS -e 100 -c 0 -i 12 -a 0 -x {3.1 4.2 -1 ------- null}
r -t 0.0271823302185826 -s 2 -d 4 -p rtProtoLS -e 100 -c 0 -i 2 -a 0 -x {2.1 4.2 -1 ------- null}
+ -t 0.0271823302185826 -s 4 -d 2 -p rtProtoLS -e 20 -c 0 -i 13 -a 0 -x {4.2 2.1 -1 ------- null}
- -t 0.0271823302185826 -s 4 -d 2 -p rtProtoLS -e 20 -c 0 -i 13 -a 0 -x {4.2 2.1 -1 ------- null}
h -t 0.0271823302185826 -s 4 -d 2 -p rtProtoLS -e 20 -c 0 -i 13 -a 0 -x {4.2 2.1 -1 ------- null}
+ -t 0.0271823302185826 -s 4 -d 3 -p rtProtoLS -e 100 -c 0 -i 14 -a 0 -x {4.2 3.1 -1 ------- null}
- -t 0.0271823302185826 -s 4 -d 3 -p rtProtoLS -e 100 -c 0 -i 14 -a 0 -x {4.2 3.1 -1 ------- null}
h -t 0.0271823302185826 -s 4 -d 3 -p rtProtoLS -e 100 -c 0 -i 14 -a 0 -x {4.2 3.1 -1 ------- null}
r -t 0.0271983302185826 -s 1 -d 2 -p rtProtoLS -e 20 -c 0 -i 6 -a 0 -x {1.1 2.1 -1 ------- null}
r -t 0.0272623302185826 -s 1 -d 0 -p rtProtoLS -e 100 -c 0 -i 7 -a 0 -x {1.1 0.2 -1 ------- null}
+ -t 0.0272623302185826 -s 0 -d 1 -p rtProtoLS -e 20 -c 0 -i 15 -a 0 -x {0.2 1.1 -1 ------- null}
- -t 0.0272623302185826 -s 0 -d 1 -p rtProtoLS -e 20 -c 0 -i 15 -a 0 -x {0.2 1.1 -1 ------- null}
h -t 0.0272623302185826 -s 0 -d 1 -p rtProtoLS -e 20 -c 0 -i 15 -a 0 -x {0.2 1.1 -1 ------- null}
r -t 0.0303457884873346 -s 2 -d 1 -p rtProtoLS -e 20 -c 0 -i 9 -a 0 -x {2.1 1.1 -1 ------- null}
r -t 0.0322623302185826 -s 1 -d 3 -p rtProtoLS -e 100 -c 0 -i 8 -a 0 -x {1.1 3.1 -1 ------- null}
+ -t 0.0322623302185826 -s 3 -d 1 -p rtProtoLS -e 20 -c 0 -i 16 -a 0 -x {3.1 1.1 -1 ------- null}
- -t 0.0322623302185826 -s 3 -d 1 -p rtProtoLS -e 20 -c 0 -i 16 -a 0 -x {3.1 1.1 -1 ------- null}
h -t 0.0322623302185826 -s 3 -d 1 -p rtProtoLS -e 20 -c 0 -i 16 -a 0 -x {3.1 1.1 -1 ------- null}
+ -t 0.0322623302185826 -s 3 -d 4 -p rtProtoLS -e 100 -c 0 -i 17 -a 0 -x {3.1 4.2 -1 ------- null}
- -t 0.0322623302185826 -s 3 -d 4 -p rtProtoLS -e 100 -c 0 -i 17 -a 0 -x {3.1 4.2 -1 ------- null}
h -t 0.0322623302185826 -s 3 -d 4 -p rtProtoLS -e 100 -c 0 -i 17 -a 0 -x {3.1 4.2 -1 ------- null}
r -t 0.0372783302185826 -s 0 -d 1 -p rtProtoLS -e 20 -c 0 -i 15 -a 0 -x {0.2 1.1 -1 ------- null}
r -t 0.0403457884873346 -s 3 -d 1 -p rtProtoLS -e 20 -c 0 -i 11 -a 0 -x {3.1 1.1 -1 ------- null}
r -t 0.0404097884873346 -s 2 -d 4 -p rtProtoLS -e 100 -c 0 -i 10 -a 0 -x {2.1 4.2 -1 ------- null}
+ -t 0.0404097884873346 -s 4 -d 2 -p rtProtoLS -e 20 -c 0 -i 18 -a 0 -x {4.2 2.1 -1 ------- null}
- -t 0.0404097884873346 -s 4 -d 2 -p rtProtoLS -e 20 -c 0 -i 18 -a 0 -x {4.2 2.1 -1 ------- null}
h -t 0.0404097884873346 -s 4 -d 2 -p rtProtoLS -e 20 -c 0 -i 18 -a 0 -x {4.2 2.1 -1 ------- null}
+ -t 0.0404097884873346 -s 4 -d 3 -p rtProtoLS -e 100 -c 0 -i 19 -a 0 -x {4.2 3.1 -1 ------- null}
- -t 0.0404097884873346 -s 4 -d 3 -p rtProtoLS -e 100 -c 0 -i 19 -a 0 -x {4.2 3.1 -1 ------- null}
h -t 0.0404097884873346 -s 4 -d 3 -p rtProtoLS -e 100 -c 0 -i 19 -a 0 -x {4.2 3.1 -1 ------- null}
+ -t 0.04406133552271 -s 3 -d 1 -p rtProtoLS -e 100 -c 0 -i 20 -a 0 -x {3.1 1.1 -1 ------- null}
- -t 0.04406133552271 -s 3 -d 1 -p rtProtoLS -e 100 -c 0 -i 20 -a 0 -x {3.1 1.1 -1 ------- null}
h -t 0.04406133552271 -s 3 -d 1 -p rtProtoLS -e 100 -c 0 -i 20 -a 0 -x {3.1 1.1 -1 ------- null}
+ -t 0.04406133552271 -s 3 -d 4 -p rtProtoLS -e 100 -c 0 -i 21 -a 0 -x {3.1 4.2 -1 ------- null}
- -t 0.04406133552271 -s 3 -d 4 -p rtProtoLS -e 100 -c 0 -i 21 -a 0 -x {3.1 4.2 -1 ------- null}
h -t 0.04406133552271 -s 3 -d 4 -p rtProtoLS -e 100 -c 0 -i 21 -a 0 -x {3.1 4.2 -1 ------- null}
r -t 0.0471983302185826 -s 4 -d 2 -p rtProtoLS -e 20 -c 0 -i 13 -a 0 -x {4.2 2.1 -1 ------- null}
r -t 0.0472783302185826 -s 3 -d 1 -p rtProtoLS -e 20 -c 0 -i 16 -a 0 -x {3.1 1.1 -1 ------- null}
r -t 0.0504097884873346 -s 3 -d 4 -p rtProtoLS -e 100 -c 0 -i 12 -a 0 -x {3.1 4.2 -1 ------- null}
+ -t 0.0504097884873346 -s 4 -d 3 -p rtProtoLS -e 20 -c 0 -i 22 -a 0 -x {4.2 3.1 -1 ------- null}
- -t 0.0504097884873346 -s 4 -d 3 -p rtProtoLS -e 20 -c 0 -i 22 -a 0 -x {4.2 3.1 -1 ------- null}
h -t 0.0504097884873346 -s 4 -d 3 -p rtProtoLS -e 20 -c 0 -i 22 -a 0 -x {4.2 3.1 -1 ------- null}
r -t 0.0522623302185826 -s 4 -d 3 -p rtProtoLS -e 100 -c 0 -i 14 -a 0 -x {4.2 3.1 -1 ------- null}
+ -t 0.0522623302185826 -s 3 -d 4 -p rtProtoLS -e 20 -c 0 -i 23 -a 0 -x {3.1 4.2 -1 ------- null}
- -t 0.0522623302185826 -s 3 -d 4 -p rtProtoLS -e 20 -c 0 -i 23 -a 0 -x {3.1 4.2 -1 ------- null}
h -t 0.0522623302185826 -s 3 -d 4 -p rtProtoLS -e 20 -c 0 -i 23 -a 0 -x {3.1 4.2 -1 ------- null}
r -t 0.0573423302185826 -s 3 -d 4 -p rtProtoLS -e 100 -c 0 -i 17 -a 0 -x {3.1 4.2 -1 ------- null}
+ -t 0.0573423302185826 -s 4 -d 3 -p rtProtoLS -e 20 -c 0 -i 24 -a 0 -x {4.2 3.1 -1 ------- null}
- -t 0.0573423302185826 -s 4 -d 3 -p rtProtoLS -e 20 -c 0 -i 24 -a 0 -x {4.2 3.1 -1 ------- null}
h -t 0.0573423302185826 -s 4 -d 3 -p rtProtoLS -e 20 -c 0 -i 24 -a 0 -x {4.2 3.1 -1 ------- null}
r -t 0.05914133552271 -s 3 -d 1 -p rtProtoLS -e 100 -c 0 -i 20 -a 0 -x {3.1 1.1 -1 ------- null}
+ -t 0.05914133552271 -s 1 -d 3 -p rtProtoLS -e 20 -c 0 -i 25 -a 0 -x {1.1 3.1 -1 ------- null}
- -t 0.05914133552271 -s 1 -d 3 -p rtProtoLS -e 20 -c 0 -i 25 -a 0 -x {1.1 3.1 -1 ------- null}
h -t 0.05914133552271 -s 1 -d 3 -p rtProtoLS -e 20 -c 0 -i 25 -a 0 -x {1.1 3.1 -1 ------- null}
+ -t 0.05914133552271 -s 1 -d 0 -p rtProtoLS -e 100 -c 0 -i 26 -a 0 -x {1.1 0.2 -1 ------- null}
- -t 0.05914133552271 -s 1 -d 0 -p rtProtoLS -e 100 -c 0 -i 26 -a 0 -x {1.1 0.2 -1 ------- null}
h -t 0.05914133552271 -s 1 -d 0 -p rtProtoLS -e 100 -c 0 -i 26 -a 0 -x {1.1 0.2 -1 ------- null}
+ -t 0.05914133552271 -s 1 -d 2 -p rtProtoLS -e 100 -c 0 -i 27 -a 0 -x {1.1 2.1 -1 ------- null}
- -t 0.05914133552271 -s 1 -d 2 -p rtProtoLS -e 100 -c 0 -i 27 -a 0 -x {1.1 2.1 -1 ------- null}
h -t 0.05914133552271 -s 1 -d 2 -p rtProtoLS -e 100 -c 0 -i 27 -a 0 -x {1.1 2.1 -1 ------- null}
r -t 0.0604257884873346 -s 4 -d 2 -p rtProtoLS -e 20 -c 0 -i 18 -a 0 -x {4.2 2.1 -1 ------- null}
r -t 0.0654897884873346 -s 4 -d 3 -p rtProtoLS -e 100 -c 0 -i 19 -a 0 -x {4.2 3.1 -1 ------- null}
+ -t 0.0654897884873346 -s 3 -d 4 -p rtProtoLS -e 20 -c 0 -i 28 -a 0 -x {3.1 4.2 -1 ------- null}
- -t 0.0654897884873346 -s 3 -d 4 -p rtProtoLS -e 20 -c 0 -i 28 -a 0 -x {3.1 4.2 -1 ------- null}
h -t 0.0654897884873346 -s 3 -d 4 -p rtProtoLS -e 20 -c 0 -i 28 -a 0 -x {3.1 4.2 -1 ------- null}
r -t 0.06914133552271 -s 3 -d 4 -p rtProtoLS -e 100 -c 0 -i 21 -a 0 -x {3.1 4.2 -1 ------- null}
+ -t 0.06914133552271 -s 4 -d 3 -p rtProtoLS -e 20 -c 0 -i 29 -a 0 -x {4.2 3.1 -1 ------- null}
- -t 0.06914133552271 -s 4 -d 3 -p rtProtoLS -e 20 -c 0 -i 29 -a 0 -x {4.2 3.1 -1 ------- null}
h -t 0.06914133552271 -s 4 -d 3 -p rtProtoLS -e 20 -c 0 -i 29 -a 0 -x {4.2 3.1 -1 ------- null}
+ -t 0.06914133552271 -s 4 -d 2 -p rtProtoLS -e 100 -c 0 -i 30 -a 0 -x {4.2 2.1 -1 ------- null}
- -t 0.06914133552271 -s 4 -d 2 -p rtProtoLS -e 100 -c 0 -i 30 -a 0 -x {4.2 2.1 -1 ------- null}
h -t 0.06914133552271 -s 4 -d 2 -p rtProtoLS -e 100 -c 0 -i 30 -a 0 -x {4.2 2.1 -1 ------- null}
r -t 0.06922133552271 -s 1 -d 0 -p rtProtoLS -e 100 -c 0 -i 26 -a 0 -x {1.1 0.2 -1 ------- null}
+ -t 0.06922133552271 -s 0 -d 1 -p rtProtoLS -e 20 -c 0 -i 31 -a 0 -x {0.2 1.1 -1 ------- null}
- -t 0.06922133552271 -s 0 -d 1 -p rtProtoLS -e 20 -c 0 -i 31 -a 0 -x {0.2 1.1 -1 ------- null}
h -t 0.06922133552271 -s 0 -d 1 -p rtProtoLS -e 20 -c 0 -i 31 -a 0 -x {0.2 1.1 -1 ------- null}
r -t 0.06922133552271 -s 1 -d 2 -p rtProtoLS -e 100 -c 0 -i 27 -a 0 -x {1.1 2.1 -1 ------- null}
+ -t 0.06922133552271 -s 2 -d 1 -p rtProtoLS -e 20 -c 0 -i 32 -a 0 -x {2.1 1.1 -1 ------- null}
- -t 0.06922133552271 -s 2 -d 1 -p rtProtoLS -e 20 -c 0 -i 32 -a 0 -x {2.1 1.1 -1 ------- null}
h -t 0.06922133552271 -s 2 -d 1 -p rtProtoLS -e 20 -c 0 -i 32 -a 0 -x {2.1 1.1 -1 ------- null}
+ -t 0.06922133552271 -s 2 -d 4 -p rtProtoLS -e 100 -c 0 -i 33 -a 0 -x {2.1 4.2 -1 ------- null}
- -t 0.06922133552271 -s 2 -d 4 -p rtProtoLS -e 100 -c 0 -i 33 -a 0 -x {2.1 4.2 -1 ------- null}
h -t 0.06922133552271 -s 2 -d 4 -p rtProtoLS -e 100 -c 0 -i 33 -a 0 -x {2.1 4.2 -1 ------- null}
r -t 0.07415733552271 -s 1 -d 3 -p rtProtoLS -e 20 -c 0 -i 25 -a 0 -x {1.1 3.1 -1 ------- null}
r -t 0.0754257884873346 -s 4 -d 3 -p rtProtoLS -e 20 -c 0 -i 22 -a 0 -x {4.2 3.1 -1 ------- null}
r -t 0.0772783302185826 -s 3 -d 4 -p rtProtoLS -e 20 -c 0 -i 23 -a 0 -x {3.1 4.2 -1 ------- null}
r -t 0.07923733552271 -s 0 -d 1 -p rtProtoLS -e 20 -c 0 -i 31 -a 0 -x {0.2 1.1 -1 ------- null}
r -t 0.07923733552271 -s 2 -d 1 -p rtProtoLS -e 20 -c 0 -i 32 -a 0 -x {2.1 1.1 -1 ------- null}
r -t 0.0823583302185826 -s 4 -d 3 -p rtProtoLS -e 20 -c 0 -i 24 -a 0 -x {4.2 3.1 -1 ------- null}
r -t 0.08922133552271 -s 4 -d 2 -p rtProtoLS -e 100 -c 0 -i 30 -a 0 -x {4.2 2.1 -1 ------- null}
+ -t 0.08922133552271 -s 2 -d 4 -p rtProtoLS -e 20 -c 0 -i 34 -a 0 -x {2.1 4.2 -1 ------- null}
- -t 0.08922133552271 -s 2 -d 4 -p rtProtoLS -e 20 -c 0 -i 34 -a 0 -x {2.1 4.2 -1 ------- null}
h -t 0.08922133552271 -s 2 -d 4 -p rtProtoLS -e 20 -c 0 -i 34 -a 0 -x {2.1 4.2 -1 ------- null}
r -t 0.08930133552271 -s 2 -d 4 -p rtProtoLS -e 100 -c 0 -i 33 -a 0 -x {2.1 4.2 -1 ------- null}
+ -t 0.08930133552271 -s 4 -d 2 -p rtProtoLS -e 20 -c 0 -i 35 -a 0 -x {4.2 2.1 -1 ------- null}
- -t 0.08930133552271 -s 4 -d 2 -p rtProtoLS -e 20 -c 0 -i 35 -a 0 -x {4.2 2.1 -1 ------- null}
h -t 0.08930133552271 -s 4 -d 2 -p rtProtoLS -e 20 -c 0 -i 35 -a 0 -x {4.2 2.1 -1 ------- null}
r -t 0.0905057884873346 -s 3 -d 4 -p rtProtoLS -e 20 -c 0 -i 28 -a 0 -x {3.1 4.2 -1 ------- null}
r -t 0.09415733552271 -s 4 -d 3 -p rtProtoLS -e 20 -c 0 -i 29 -a 0 -x {4.2 3.1 -1 ------- null}
r -t 0.10923733552271 -s 2 -d 4 -p rtProtoLS -e 20 -c 0 -i 34 -a 0 -x {2.1 4.2 -1 ------- null}
r -t 0.10931733552271 -s 4 -d 2 -p rtProtoLS -e 20 -c 0 -i 35 -a 0 -x {4.2 2.1 -1 ------- null}
+ -t 0.22058669092161 -s 4 -d 2 -p rtProtoLS -e 100 -c 0 -i 36 -a 0 -x {4.2 2.1 -1 ------- null}
- -t 0.22058669092161 -s 4 -d 2 -p rtProtoLS -e 100 -c 0 -i 36 -a 0 -x {4.2 2.1 -1 ------- null}
h -t 0.22058669092161 -s 4 -d 2 -p rtProtoLS -e 100 -c 0 -i 36 -a 0 -x {4.2 2.1 -1 ------- null}
+ -t 0.22058669092161 -s 4 -d 3 -p rtProtoLS -e 100 -c 0 -i 37 -a 0 -x {4.2 3.1 -1 ------- null}
- -t 0.22058669092161 -s 4 -d 3 -p rtProtoLS -e 100 -c 0 -i 37 -a 0 -x {4.2 3.1 -1 ------- null}
h -t 0.22058669092161 -s 4 -d 3 -p rtProtoLS -e 100 -c 0 -i 37 -a 0 -x {4.2 3.1 -1 ------- null}
r -t 0.24066669092161 -s 4 -d 2 -p rtProtoLS -e 100 -c 0 -i 36 -a 0 -x {4.2 2.1 -1 ------- null}
+ -t 0.24066669092161 -s 2 -d 4 -p rtProtoLS -e 20 -c 0 -i 38 -a 0 -x {2.1 4.2 -1 ------- null}
- -t 0.24066669092161 -s 2 -d 4 -p rtProtoLS -e 20 -c 0 -i 38 -a 0 -x {2.1 4.2 -1 ------- null}
h -t 0.24066669092161 -s 2 -d 4 -p rtProtoLS -e 20 -c 0 -i 38 -a 0 -x {2.1 4.2 -1 ------- null}
+ -t 0.24066669092161 -s 2 -d 1 -p rtProtoLS -e 100 -c 0 -i 39 -a 0 -x {2.1 1.1 -1 ------- null}
- -t 0.24066669092161 -s 2 -d 1 -p rtProtoLS -e 100 -c 0 -i 39 -a 0 -x {2.1 1.1 -1 ------- null}
h -t 0.24066669092161 -s 2 -d 1 -p rtProtoLS -e 100 -c 0 -i 39 -a 0 -x {2.1 1.1 -1 ------- null}
r -t 0.24566669092161 -s 4 -d 3 -p rtProtoLS -e 100 -c 0 -i 37 -a 0 -x {4.2 3.1 -1 ------- null}
+ -t 0.24566669092161 -s 3 -d 4 -p rtProtoLS -e 20 -c 0 -i 40 -a 0 -x {3.1 4.2 -1 ------- null}
- -t 0.24566669092161 -s 3 -d 4 -p rtProtoLS -e 20 -c 0 -i 40 -a 0 -x {3.1 4.2 -1 ------- null}
h -t 0.24566669092161 -s 3 -d 4 -p rtProtoLS -e 20 -c 0 -i 40 -a 0 -x {3.1 4.2 -1 ------- null}
+ -t 0.24566669092161 -s 3 -d 1 -p rtProtoLS -e 100 -c 0 -i 41 -a 0 -x {3.1 1.1 -1 ------- null}
- -t 0.24566669092161 -s 3 -d 1 -p rtProtoLS -e 100 -c 0 -i 41 -a 0 -x {3.1 1.1 -1 ------- null}
h -t 0.24566669092161 -s 3 -d 1 -p rtProtoLS -e 100 -c 0 -i 41 -a 0 -x {3.1 1.1 -1 ------- null}
r -t 0.25074669092161 -s 2 -d 1 -p rtProtoLS -e 100 -c 0 -i 39 -a 0 -x {2.1 1.1 -1 ------- null}
+ -t 0.25074669092161 -s 1 -d 2 -p rtProtoLS -e 20 -c 0 -i 42 -a 0 -x {1.1 2.1 -1 ------- null}
- -t 0.25074669092161 -s 1 -d 2 -p rtProtoLS -e 20 -c 0 -i 42 -a 0 -x {1.1 2.1 -1 ------- null}
h -t 0.25074669092161 -s 1 -d 2 -p rtProtoLS -e 20 -c 0 -i 42 -a 0 -x {1.1 2.1 -1 ------- null}
+ -t 0.25074669092161 -s 1 -d 0 -p rtProtoLS -e 100 -c 0 -i 43 -a 0 -x {1.1 0.2 -1 ------- null}
- -t 0.25074669092161 -s 1 -d 0 -p rtProtoLS -e 100 -c 0 -i 43 -a 0 -x {1.1 0.2 -1 ------- null}
h -t 0.25074669092161 -s 1 -d 0 -p rtProtoLS -e 100 -c 0 -i 43 -a 0 -x {1.1 0.2 -1 ------- null}
+ -t 0.25074669092161 -s 1 -d 3 -p rtProtoLS -e 100 -c 0 -i 44 -a 0 -x {1.1 3.1 -1 ------- null}
- -t 0.25074669092161 -s 1 -d 3 -p rtProtoLS -e 100 -c 0 -i 44 -a 0 -x {1.1 3.1 -1 ------- null}
h -t 0.25074669092161 -s 1 -d 3 -p rtProtoLS -e 100 -c 0 -i 44 -a 0 -x {1.1 3.1 -1 ------- null}
r -t 0.26068269092161 -s 2 -d 4 -p rtProtoLS -e 20 -c 0 -i 38 -a 0 -x {2.1 4.2 -1 ------- null}
r -t 0.26074669092161 -s 3 -d 1 -p rtProtoLS -e 100 -c 0 -i 41 -a 0 -x {3.1 1.1 -1 ------- null}
+ -t 0.26074669092161 -s 1 -d 3 -p rtProtoLS -e 20 -c 0 -i 45 -a 0 -x {1.1 3.1 -1 ------- null}
- -t 0.26074669092161 -s 1 -d 3 -p rtProtoLS -e 20 -c 0 -i 45 -a 0 -x {1.1 3.1 -1 ------- null}
h -t 0.26074669092161 -s 1 -d 3 -p rtProtoLS -e 20 -c 0 -i 45 -a 0 -x {1.1 3.1 -1 ------- null}
r -t 0.26076269092161 -s 1 -d 2 -p rtProtoLS -e 20 -c 0 -i 42 -a 0 -x {1.1 2.1 -1 ------- null}
r -t 0.26082669092161 -s 1 -d 0 -p rtProtoLS -e 100 -c 0 -i 43 -a 0 -x {1.1 0.2 -1 ------- null}
+ -t 0.26082669092161 -s 0 -d 1 -p rtProtoLS -e 20 -c 0 -i 46 -a 0 -x {0.2 1.1 -1 ------- null}
- -t 0.26082669092161 -s 0 -d 1 -p rtProtoLS -e 20 -c 0 -i 46 -a 0 -x {0.2 1.1 -1 ------- null}
h -t 0.26082669092161 -s 0 -d 1 -p rtProtoLS -e 20 -c 0 -i 46 -a 0 -x {0.2 1.1 -1 ------- null}
r -t 0.26582669092161 -s 1 -d 3 -p rtProtoLS -e 100 -c 0 -i 44 -a 0 -x {1.1 3.1 -1 ------- null}
+ -t 0.26582669092161 -s 3 -d 1 -p rtProtoLS -e 20 -c 0 -i 47 -a 0 -x {3.1 1.1 -1 ------- null}
- -t 0.26582669092161 -s 3 -d 1 -p rtProtoLS -e 20 -c 0 -i 47 -a 0 -x {3.1 1.1 -1 ------- null}
h -t 0.26582669092161 -s 3 -d 1 -p rtProtoLS -e 20 -c 0 -i 47 -a 0 -x {3.1 1.1 -1 ------- null}
r -t 0.27068269092161 -s 3 -d 4 -p rtProtoLS -e 20 -c 0 -i 40 -a 0 -x {3.1 4.2 -1 ------- null}
r -t 0.27084269092161 -s 0 -d 1 -p rtProtoLS -e 20 -c 0 -i 46 -a 0 -x {0.2 1.1 -1 ------- null}
r -t 0.27576269092161 -s 1 -d 3 -p rtProtoLS -e 20 -c 0 -i 45 -a 0 -x {1.1 3.1 -1 ------- null}
+ -t 0.277940357931862 -s 1 -d 0 -p rtProtoLS -e 100 -c 0 -i 48 -a 0 -x {1.1 0.2 -1 ------- null}
- -t 0.277940357931862 -s 1 -d 0 -p rtProtoLS -e 100 -c 0 -i 48 -a 0 -x {1.1 0.2 -1 ------- null}
h -t 0.277940357931862 -s 1 -d 0 -p rtProtoLS -e 100 -c 0 -i 48 -a 0 -x {1.1 0.2 -1 ------- null}
+ -t 0.277940357931862 -s 1 -d 2 -p rtProtoLS -e 100 -c 0 -i 49 -a 0 -x {1.1 2.1 -1 ------- null}
- -t 0.277940357931862 -s 1 -d 2 -p rtProtoLS -e 100 -c 0 -i 49 -a 0 -x {1.1 2.1 -1 ------- null}
h -t 0.277940357931862 -s 1 -d 2 -p rtProtoLS -e 100 -c 0 -i 49 -a 0 -x {1.1 2.1 -1 ------- null}
+ -t 0.277940357931862 -s 1 -d 3 -p rtProtoLS -e 100 -c 0 -i 50 -a 0 -x {1.1 3.1 -1 ------- null}
- -t 0.277940357931862 -s 1 -d 3 -p rtProtoLS -e 100 -c 0 -i 50 -a 0 -x {1.1 3.1 -1 ------- null}
h -t 0.277940357931862 -s 1 -d 3 -p rtProtoLS -e 100 -c 0 -i 50 -a 0 -x {1.1 3.1 -1 ------- null}
r -t 0.28084269092161 -s 3 -d 1 -p rtProtoLS -e 20 -c 0 -i 47 -a 0 -x {3.1 1.1 -1 ------- null}
r -t 0.288020357931862 -s 1 -d 0 -p rtProtoLS -e 100 -c 0 -i 48 -a 0 -x {1.1 0.2 -1 ------- null}
+ -t 0.288020357931862 -s 0 -d 1 -p rtProtoLS -e 20 -c 0 -i 51 -a 0 -x {0.2 1.1 -1 ------- null}
- -t 0.288020357931862 -s 0 -d 1 -p rtProtoLS -e 20 -c 0 -i 51 -a 0 -x {0.2 1.1 -1 ------- null}
h -t 0.288020357931862 -s 0 -d 1 -p rtProtoLS -e 20 -c 0 -i 51 -a 0 -x {0.2 1.1 -1 ------- null}
r -t 0.288020357931862 -s 1 -d 2 -p rtProtoLS -e 100 -c 0 -i 49 -a 0 -x {1.1 2.1 -1 ------- null}
+ -t 0.288020357931862 -s 2 -d 1 -p rtProtoLS -e 20 -c 0 -i 52 -a 0 -x {2.1 1.1 -1 ------- null}
- -t 0.288020357931862 -s 2 -d 1 -p rtProtoLS -e 20 -c 0 -i 52 -a 0 -x {2.1 1.1 -1 ------- null}
h -t 0.288020357931862 -s 2 -d 1 -p rtProtoLS -e 20 -c 0 -i 52 -a 0 -x {2.1 1.1 -1 ------- null}
+ -t 0.288020357931862 -s 2 -d 4 -p rtProtoLS -e 100 -c 0 -i 53 -a 0 -x {2.1 4.2 -1 ------- null}
- -t 0.288020357931862 -s 2 -d 4 -p rtProtoLS -e 100 -c 0 -i 53 -a 0 -x {2.1 4.2 -1 ------- null}
h -t 0.288020357931862 -s 2 -d 4 -p rtProtoLS -e 100 -c 0 -i 53 -a 0 -x {2.1 4.2 -1 ------- null}
r -t 0.293020357931862 -s 1 -d 3 -p rtProtoLS -e 100 -c 0 -i 50 -a 0 -x {1.1 3.1 -1 ------- null}
+ -t 0.293020357931862 -s 3 -d 1 -p rtProtoLS -e 20 -c 0 -i 54 -a 0 -x {3.1 1.1 -1 ------- null}
- -t 0.293020357931862 -s 3 -d 1 -p rtProtoLS -e 20 -c 0 -i 54 -a 0 -x {3.1 1.1 -1 ------- null}
h -t 0.293020357931862 -s 3 -d 1 -p rtProtoLS -e 20 -c 0 -i 54 -a 0 -x {3.1 1.1 -1 ------- null}
+ -t 0.293020357931862 -s 3 -d 4 -p rtProtoLS -e 100 -c 0 -i 55 -a 0 -x {3.1 4.2 -1 ------- null}
- -t 0.293020357931862 -s 3 -d 4 -p rtProtoLS -e 100 -c 0 -i 55 -a 0 -x {3.1 4.2 -1 ------- null}
h -t 0.293020357931862 -s 3 -d 4 -p rtProtoLS -e 100 -c 0 -i 55 -a 0 -x {3.1 4.2 -1 ------- null}
r -t 0.298036357931862 -s 0 -d 1 -p rtProtoLS -e 20 -c 0 -i 51 -a 0 -x {0.2 1.1 -1 ------- null}
r -t 0.298036357931862 -s 2 -d 1 -p rtProtoLS -e 20 -c 0 -i 52 -a 0 -x {2.1 1.1 -1 ------- null}
r -t 0.308036357931862 -s 3 -d 1 -p rtProtoLS -e 20 -c 0 -i 54 -a 0 -x {3.1 1.1 -1 ------- null}
r -t 0.308100357931862 -s 2 -d 4 -p rtProtoLS -e 100 -c 0 -i 53 -a 0 -x {2.1 4.2 -1 ------- null}
+ -t 0.308100357931862 -s 4 -d 2 -p rtProtoLS -e 20 -c 0 -i 56 -a 0 -x {4.2 2.1 -1 ------- null}
- -t 0.308100357931862 -s 4 -d 2 -p rtProtoLS -e 20 -c 0 -i 56 -a 0 -x {4.2 2.1 -1 ------- null}
h -t 0.308100357931862 -s 4 -d 2 -p rtProtoLS -e 20 -c 0 -i 56 -a 0 -x {4.2 2.1 -1 ------- null}
+ -t 0.308100357931862 -s 4 -d 3 -p rtProtoLS -e 100 -c 0 -i 57 -a 0 -x {4.2 3.1 -1 ------- null}
- -t 0.308100357931862 -s 4 -d 3 -p rtProtoLS -e 100 -c 0 -i 57 -a 0 -x {4.2 3.1 -1 ------- null}
h -t 0.308100357931862 -s 4 -d 3 -p rtProtoLS -e 100 -c 0 -i 57 -a 0 -x {4.2 3.1 -1 ------- null}
r -t 0.318100357931862 -s 3 -d 4 -p rtProtoLS -e 100 -c 0 -i 55 -a 0 -x {3.1 4.2 -1 ------- null}
+ -t 0.318100357931862 -s 4 -d 3 -p rtProtoLS -e 20 -c 0 -i 58 -a 0 -x {4.2 3.1 -1 ------- null}
- -t 0.318100357931862 -s 4 -d 3 -p rtProtoLS -e 20 -c 0 -i 58 -a 0 -x {4.2 3.1 -1 ------- null}
h -t 0.318100357931862 -s 4 -d 3 -p rtProtoLS -e 20 -c 0 -i 58 -a 0 -x {4.2 3.1 -1 ------- null}
r -t 0.328116357931862 -s 4 -d 2 -p rtProtoLS -e 20 -c 0 -i 56 -a 0 -x {4.2 2.1 -1 ------- null}
r -t 0.333180357931862 -s 4 -d 3 -p rtProtoLS -e 100 -c 0 -i 57 -a 0 -x {4.2 3.1 -1 ------- null}
+ -t 0.333180357931862 -s 3 -d 4 -p rtProtoLS -e 20 -c 0 -i 59 -a 0 -x {3.1 4.2 -1 ------- null}
- -t 0.333180357931862 -s 3 -d 4 -p rtProtoLS -e 20 -c 0 -i 59 -a 0 -x {3.1 4.2 -1 ------- null}
h -t 0.333180357931862 -s 3 -d 4 -p rtProtoLS -e 20 -c 0 -i 59 -a 0 -x {3.1 4.2 -1 ------- null}
r -t 0.343116357931862 -s 4 -d 3 -p rtProtoLS -e 20 -c 0 -i 58 -a 0 -x {4.2 3.1 -1 ------- null}
r -t 0.358196357931862 -s 3 -d 4 -p rtProtoLS -e 20 -c 0 -i 59 -a 0 -x {3.1 4.2 -1 ------- null}
+ -t 1 -s 0 -d 1 -p tcp -e 40 -c 0 -i 60 -a 0 -x {0.0 4.0 0 ------- null}
- -t 1 -s 0 -d 1 -p tcp -e 40 -c 0 -i 60 -a 0 -x {0.0 4.0 0 ------- null}
h -t 1 -s 0 -d 1 -p tcp -e 40 -c 0 -i 60 -a 0 -x {0.0 4.0 -1 ------- null}
r -t 1.010032 -s 0 -d 1 -p tcp -e 40 -c 0 -i 60 -a 0 -x {0.0 4.0 0 ------- null}
+ -t 1.010032 -s 1 -d 2 -p tcp -e 40 -c 0 -i 60 -a 0 -x {0.0 4.0 0 ------- null}
- -t 1.010032 -s 1 -d 2 -p tcp -e 40 -c 0 -i 60 -a 0 -x {0.0 4.0 0 ------- null}
h -t 1.010032 -s 1 -d 2 -p tcp -e 40 -c 0 -i 60 -a 0 -x {0.0 4.0 -1 ------- null}
r -t 1.020064 -s 1 -d 2 -p tcp -e 40 -c 0 -i 60 -a 0 -x {0.0 4.0 0 ------- null}
+ -t 1.020064 -s 2 -d 4 -p tcp -e 40 -c 0 -i 60 -a 0 -x {0.0 4.0 0 ------- null}
- -t 1.020064 -s 2 -d 4 -p tcp -e 40 -c 0 -i 60 -a 0 -x {0.0 4.0 0 ------- null}
h -t 1.020064 -s 2 -d 4 -p tcp -e 40 -c 0 -i 60 -a 0 -x {0.0 4.0 -1 ------- null}
r -t 1.040096 -s 2 -d 4 -p tcp -e 40 -c 0 -i 60 -a 0 -x {0.0 4.0 0 ------- null}
+ -t 1.040096 -s 4 -d 2 -p ack -e 40 -c 0 -i 61 -a 0 -x {4.0 0.0 0 ------- null}
- -t 1.040096 -s 4 -d 2 -p ack -e 40 -c 0 -i 61 -a 0 -x {4.0 0.0 0 ------- null}
h -t 1.040096 -s 4 -d 2 -p ack -e 40 -c 0 -i 61 -a 0 -x {4.0 0.0 -1 ------- null}
r -t 1.060128 -s 4 -d 2 -p ack -e 40 -c 0 -i 61 -a 0 -x {4.0 0.0 0 ------- null}
+ -t 1.060128 -s 2 -d 1 -p ack -e 40 -c 0 -i 61 -a 0 -x {4.0 0.0 0 ------- null}
- -t 1.060128 -s 2 -d 1 -p ack -e 40 -c 0 -i 61 -a 0 -x {4.0 0.0 0 ------- null}
h -t 1.060128 -s 2 -d 1 -p ack -e 40 -c 0 -i 61 -a 0 -x {4.0 0.0 -1 ------- null}
r -t 1.07016 -s 2 -d 1 -p ack -e 40 -c 0 -i 61 -a 0 -x {4.0 0.0 0 ------- null}
+ -t 1.07016 -s 1 -d 0 -p ack -e 40 -c 0 -i 61 -a 0 -x {4.0 0.0 0 ------- null}
- -t 1.07016 -s 1 -d 0 -p ack -e 40 -c 0 -i 61 -a 0 -x {4.0 0.0 0 ------- null}
h -t 1.07016 -s 1 -d 0 -p ack -e 40 -c 0 -i 61 -a 0 -x {4.0 0.0 -1 ------- null}
r -t 1.080192 -s 1 -d 0 -p ack -e 40 -c 0 -i 61 -a 0 -x {4.0 0.0 0 ------- null}
+ -t 1.080192 -s 0 -d 1 -p tcp -e 1040 -c 0 -i 62 -a 0 -x {0.0 4.0 1 ------- null}
- -t 1.080192 -s 0 -d 1 -p tcp -e 1040 -c 0 -i 62 -a 0 -x {0.0 4.0 1 ------- null}
h -t 1.080192 -s 0 -d 1 -p tcp -e 1040 -c 0 -i 62 -a 0 -x {0.0 4.0 -1 ------- null}
r -t 1.091024 -s 0 -d 1 -p tcp -e 1040 -c 0 -i 62 -a 0 -x {0.0 4.0 1 ------- null}
+ -t 1.091024 -s 1 -d 2 -p tcp -e 1040 -c 0 -i 62 -a 0 -x {0.0 4.0 1 ------- null}
- -t 1.091024 -s 1 -d 2 -p tcp -e 1040 -c 0 -i 62 -a 0 -x {0.0 4.0 1 ------- null}
h -t 1.091024 -s 1 -d 2 -p tcp -e 1040 -c 0 -i 62 -a 0 -x {0.0 4.0 -1 ------- null}
r -t 1.101856 -s 1 -d 2 -p tcp -e 1040 -c 0 -i 62 -a 0 -x {0.0 4.0 1 ------- null}
+ -t 1.101856 -s 2 -d 4 -p tcp -e 1040 -c 0 -i 62 -a 0 -x {0.0 4.0 1 ------- null}
- -t 1.101856 -s 2 -d 4 -p tcp -e 1040 -c 0 -i 62 -a 0 -x {0.0 4.0 1 ------- null}
h -t 1.101856 -s 2 -d 4 -p tcp -e 1040 -c 0 -i 62 -a 0 -x {0.0 4.0 -1 ------- null}
r -t 1.122688 -s 2 -d 4 -p tcp -e 1040 -c 0 -i 62 -a 0 -x {0.0 4.0 1 ------- null}
+ -t 1.122688 -s 4 -d 2 -p ack -e 40 -c 0 -i 63 -a 0 -x {4.0 0.0 1 ------- null}
- -t 1.122688 -s 4 -d 2 -p ack -e 40 -c 0 -i 63 -a 0 -x {4.0 0.0 1 ------- null}
h -t 1.122688 -s 4 -d 2 -p ack -e 40 -c 0 -i 63 -a 0 -x {4.0 0.0 -1 ------- null}
r -t 1.14272 -s 4 -d 2 -p ack -e 40 -c 0 -i 63 -a 0 -x {4.0 0.0 1 ------- null}
+ -t 1.14272 -s 2 -d 1 -p ack -e 40 -c 0 -i 63 -a 0 -x {4.0 0.0 1 ------- null}
- -t 1.14272 -s 2 -d 1 -p ack -e 40 -c 0 -i 63 -a 0 -x {4.0 0.0 1 ------- null}
h -t 1.14272 -s 2 -d 1 -p ack -e 40 -c 0 -i 63 -a 0 -x {4.0 0.0 -1 ------- null}
r -t 1.152752 -s 2 -d 1 -p ack -e 40 -c 0 -i 63 -a 0 -x {4.0 0.0 1 ------- null}
+ -t 1.152752 -s 1 -d 0 -p ack -e 40 -c 0 -i 63 -a 0 -x {4.0 0.0 1 ------- null}
- -t 1.152752 -s 1 -d 0 -p ack -e 40 -c 0 -i 63 -a 0 -x {4.0 0.0 1 ------- null}
h -t 1.152752 -s 1 -d 0 -p ack -e 40 -c 0 -i 63 -a 0 -x {4.0 0.0 -1 ------- null}
r -t 1.162784 -s 1 -d 0 -p ack -e 40 -c 0 -i 63 -a 0 -x {4.0 0.0 1 ------- null}
+ -t 1.5 -s 0 -d 1 -p tcp -e 1040 -c 0 -i 64 -a 0 -x {0.0 4.0 2 ---A--- null}
- -t 1.5 -s 0 -d 1 -p tcp -e 1040 -c 0 -i 64 -a 0 -x {0.0 4.0 2 ---A--- null}
h -t 1.5 -s 0 -d 1 -p tcp -e 1040 -c 0 -i 64 -a 0 -x {0.0 4.0 -1 ---A--- null}
r -t 1.510832 -s 0 -d 1 -p tcp -e 1040 -c 0 -i 64 -a 0 -x {0.0 4.0 2 ---A--- null}
+ -t 1.510832 -s 1 -d 2 -p tcp -e 1040 -c 0 -i 64 -a 0 -x {0.0 4.0 2 ---A--- null}
- -t 1.510832 -s 1 -d 2 -p tcp -e 1040 -c 0 -i 64 -a 0 -x {0.0 4.0 2 ---A--- null}
h -t 1.510832 -s 1 -d 2 -p tcp -e 1040 -c 0 -i 64 -a 0 -x {0.0 4.0 -1 ---A--- null}
r -t 1.521664 -s 1 -d 2 -p tcp -e 1040 -c 0 -i 64 -a 0 -x {0.0 4.0 2 ---A--- null}
+ -t 1.521664 -s 2 -d 4 -p tcp -e 1040 -c 0 -i 64 -a 0 -x {0.0 4.0 2 ---A--- null}
- -t 1.521664 -s 2 -d 4 -p tcp -e 1040 -c 0 -i 64 -a 0 -x {0.0 4.0 2 ---A--- null}
h -t 1.521664 -s 2 -d 4 -p tcp -e 1040 -c 0 -i 64 -a 0 -x {0.0 4.0 -1 ---A--- null}
r -t 1.542496 -s 2 -d 4 -p tcp -e 1040 -c 0 -i 64 -a 0 -x {0.0 4.0 2 ---A--- null}
+ -t 1.542496 -s 4 -d 2 -p ack -e 40 -c 0 -i 65 -a 0 -x {4.0 0.0 2 ------- null}
- -t 1.542496 -s 4 -d 2 -p ack -e 40 -c 0 -i 65 -a 0 -x {4.0 0.0 2 ------- null}
h -t 1.542496 -s 4 -d 2 -p ack -e 40 -c 0 -i 65 -a 0 -x {4.0 0.0 -1 ------- null}
r -t 1.562528 -s 4 -d 2 -p ack -e 40 -c 0 -i 65 -a 0 -x {4.0 0.0 2 ------- null}
+ -t 1.562528 -s 2 -d 1 -p ack -e 40 -c 0 -i 65 -a 0 -x {4.0 0.0 2 ------- null}
- -t 1.562528 -s 2 -d 1 -p ack -e 40 -c 0 -i 65 -a 0 -x {4.0 0.0 2 ------- null}
h -t 1.562528 -s 2 -d 1 -p ack -e 40 -c 0 -i 65 -a 0 -x {4.0 0.0 -1 ------- null}
r -t 1.57256 -s 2 -d 1 -p ack -e 40 -c 0 -i 65 -a 0 -x {4.0 0.0 2 ------- null}
+ -t 1.57256 -s 1 -d 0 -p ack -e 40 -c 0 -i 65 -a 0 -x {4.0 0.0 2 ------- null}
- -t 1.57256 -s 1 -d 0 -p ack -e 40 -c 0 -i 65 -a 0 -x {4.0 0.0 2 ------- null}
h -t 1.57256 -s 1 -d 0 -p ack -e 40 -c 0 -i 65 -a 0 -x {4.0 0.0 -1 ------- null}
r -t 1.582592 -s 1 -d 0 -p ack -e 40 -c 0 -i 65 -a 0 -x {4.0 0.0 2 ------- null}
+ -t 2 -s 0 -d 1 -p tcp -e 1040 -c 0 -i 66 -a 0 -x {0.0 4.0 3 ---A--- null}