V -t * -v 1.0a5 -a 0
A -t * -n 1 -p 0 -o 0x7fffffff -c 30 -a 1
A -t * -h 1 -m 1073741823 -s 0
n -t * -a 4 -s 4 -S UP -v circle -c black -i black
n -t * -a 0 -s 0 -S UP -v circle -c black -i black
n -t * -a 1 -s 1 -S UP -v circle -c black -i black
n -t * -a 2 -s 2 -S UP -v circle -c black -i black
n -t * -a 3 -s 3 -S UP -v circle -c black -i black
l -t * -s 0 -d 1 -S UP -r 10000000 -D 0.01 -c black
l -t * -s 1 -d 2 -S UP -r 10000000 -D 0.01 -c black
l -t * -s 1 -d 3 -S UP -r 10000000 -D 0.014999999999999999 -c black
l -t * -s 2 -d 4 -S UP -r 10000000 -D 0.02 -c black
l -t * -s 3 -d 4 -S UP -r 10000000 -D 0.025000000000000001 -c black
+ -t 1 -s 0 -d 1 -p tcp -e 40 -c 0 -i 0 -a 0 -x {0.1 4.1 0 ------- null}
- -t 1 -s 0 -d 1 -p tcp -e 40 -c 0 -i 0 -a 0 -x {0.1 4.1 0 ------- null}
h -t 1 -s 0 -d 1 -p tcp -e 40 -c 0 -i 0 -a 0 -x {0.1 4.1 -1 ------- null}
r -t 1.010032 -s 0 -d 1 -p tcp -e 40 -c 0 -i 0 -a 0 -x {0.1 4.1 0 ------- null}
+ -t 1.010032 -s 1 -d 2 -p tcp -e 40 -c 0 -i 0 -a 0 -x {0.1 4.1 0 ------- null}
- -t 1.010032 -s 1 -d 2 -p tcp -e 40 -c 0 -i 0 -a 0 -x {0.1 4.1 0 ------- null}
h -t 1.010032 -s 1 -d 2 -p tcp -e 40 -c 0 -i 0 -a 0 -x {0.1 4.1 -1 ------- null}
r -t 1.020064 -s 1 -d 2 -p tcp -e 40 -c 0 -i 0 -a 0 -x {0.1 4.1 0 ------- null}
+ -t 1.020064 -s 2 -d 4 -p tcp -e 40 -c 0 -i 0 -a 0 -x {0.1 4.1 0 ------- null}
- -t 1.020064 -s 2 -d 4 -p tcp -e 40 -c 0 -i 0 -a 0 -x {0.1 4.1 0 ------- null}
h -t 1.020064 -s 2 -d 4 -p tcp -e 40 -c 0 -i 0 -a 0 -x {0.1 4.1 -1 ------- null}
r -t 1.040096 -s 2 -d 4 -p tcp -e 40 -c 0 -i 0 -a 0 -x {0.1 4.1 0 ------- null}
+ -t 1.040096 -s 4 -d 2 -p ack -e 40 -c 0 -i 1 -a 0 -x {4.1 0.1 0 ------- null}
- -t 1.040096 -s 4 -d 2 -p ack -e 40 -c 0 -i 1 -a 0 -x {4.1 0.1 0 ------- null}
h -t 1.040096 -s 4 -d 2 -p ack -e 40 -c 0 -i 1 -a 0 -x {4.1 0.1 -1 ------- null}
r -t 1.060128 -s 4 -d 2 -p ack -e 40 -c 0 -i 1 -a 0 -x {4.1 0.1 0 ------- null}
+ -t 1.060128 -s 2 -d 1 -p ack -e 40 -c 0 -i 1 -a 0 -x {4.1 0.1 0 ------- null}
- -t 1.060128 -s 2 -d 1 -p ack -e 40 -c 0 -i 1 -a 0 -x {4.1 0.1 0 ------- null}
h -t 1.060128 -s 2 -d 1 -p ack -e 40 -c 0 -i 1 -a 0 -x {4.1 0.1 -1 ------- null}
r -t 1.07016 -s 2 -d 1 -p ack -e 40 -c 0 -i 1 -a 0 -x {4.1 0.1 0 ------- null}
+ -t 1.07016 -s 1 -d 0 -p ack -e 40 -c 0 -i 1 -a 0 -x {4.1 0.1 0 ------- null}
- -t 1.07016 -s 1 -d 0 -p ack -e 40 -c 0 -i 1 -a 0 -x {4.1 0.1 0 ------- null}
h -t 1.07016 -s 1 -d 0 -p ack -e 40 -c 0 -i 1 -a 0 -x {4.1 0.1 -1 ------- null}
r -t 1.080192 -s 1 -d 0 -p ack -e 40 -c 0 -i 1 -a 0 -x {4.1 0.1 0 ------- null}
+ -t 1.080192 -s 0 -d 1 -p tcp -e 1040 -c 0 -i 2 -a 0 -x {0.1 4.1 1 ------- null}
- -t 1.080192 -s 0 -d 1 -p tcp -e 1040 -c 0 -i 2 -a 0 -x {0.1 4.1 1 ------- null}
h -t 1.080192 -s 0 -d 1 -p tcp -e 1040 -c 0 -i 2 -a 0 -x {0.1 4.1 -1 ------- null}
r -t 1.091024 -s 0 -d 1 -p tcp -e 1040 -c 0 -i 2 -a 0 -x {0.1 4.1 1 ------- null}
+ -t 1.091024 -s 1 -d 2 -p tcp -e 1040 -c 0 -i 2 -a 0 -x {0.1 4.1 1 ------- null}
- -t 1.091024 -s 1 -d 2 -p tcp -e 1040 -c 0 -i 2 -a 0 -x {0.1 4.1 1 ------- null}
h -t 1.091024 -s 1 -d 2 -p tcp -e 1040 -c 0 -i 2 -a 0 -x {0.1 4.1 -1 ------- null}
r -t 1.101856 -s 1 -d 2 -p tcp -e 1040 -c 0 -i 2 -a 0 -x {0.1 4.1 1 ------- null}
+ -t 1.101856 -s 2 -d 4 -p tcp -e 1040 -c 0 -i 2 -a 0 -x {0.1 4.1 1 ------- null}
- -t 1.101856 -s 2 -d 4 -p tcp -e 1040 -c 0 -i 2 -a 0 -x {0.1 4.1 1 ------- null}
h -t 1.101856 -s 2 -d 4 -p tcp -e 1040 -c 0 -i 2 -a 0 -x {0.1 4.1 -1 ------- null}
r -t 1.122688 -s 2 -d 4 -p tcp -e 1040 -c 0 -i 2 -a 0 -x {0.1 4.1 1 ------- null}
+ -t 1.122688 -s 4 -d 2 -p ack -e 40 -c 0 -i 3 -a 0 -x {4.1 0.1 1 ------- null}
- -t 1.122688 -s 4 -d 2 -p ack -e 40 -c 0 -i 3 -a 0 -x {4.1 0.1 1 ------- null}
h -t 1.122688 -s 4 -d 2 -p ack -e 40 -c 0 -i 3 -a 0 -x {4.1 0.1 -1 ------- null}
r -t 1.14272 -s 4 -d 2 -p ack -e 40 -c 0 -i 3 -a 0 -x {4.1 0.1 1 ------- null}
+ -t 1.14272 -s 2 -d 1 -p ack -e 40 -c 0 -i 3 -a 0 -x {4.1 0.1 1 ------- null}
- -t 1.14272 -s 2 -d 1 -p ack -e 40 -c 0 -i 3 -a 0 -x {4.1 0.1 1 ------- null}
h -t 1.14272 -s 2 -d 1 -p ack -e 40 -c 0 -i 3 -a 0 -x {4.1 0.1 -1 ------- null}
r -t 1.152752 -s 2 -d 1 -p ack -e 40 -c 0 -i 3 -a 0 -x {4.1 0.1 1 ------- null}
+ -t 1.152752 -s 1 -d 0 -p ack -e 40 -c 0 -i 3 -a 0 -x {4.1 0.1 1 ------- null}
- -t 1.152752 -s 1 -d 0 -p ack -e 40 -c 0 -i 3 -a 0 -x {4.1 0.1 1 ------- null}
h -t 1.152752 -s 1 -d 0 -p ack -e 40 -c 0 -i 3 -a 0 -x {4.1 0.1 -1 ------- null}
r -t 1.162784 -s 1 -d 0 -p ack -e 40 -c 0 -i 3 -a 0 -x {4.1 0.1 1 ------- null}
+ -t 1.5 -s 0 -d 1 -p tcp -e 1040 -c 0 -i 4 -a 0 -x {0.1 4.1 2 ---A--- null}
- -t 1.5 -s 0 -d 1 -p tcp -e 1040 -c 0 -i 4 -a 0 -x {0.1 4.1 2 ---A--- null}
h -t 1.5 -s 0 -d 1 -p tcp -e 1040 -c 0 -i 4 -a 0 -x {0.1 4.1 -1 ---A--- null}
r -t 1.510832 -s 0 -d 1 -p tcp -e 1040 -c 0 -i 4 -a 0 -x {0.1 4.1 2 ---A--- null}
+ -t 1.510832 -s 1 -d 2 -p tcp -e 1040 -c 0 -i 4 -a 0 -x {0.1 4.1 2 ---A--- null}
- -t 1.510832 -s 1 -d 2 -p tcp -e 1040 -c 0 -i 4 -a 0 -x {0.1 4.1 2 ---A--- null}
h -t 1.510832 -s 1 -d 2 -p tcp -e 1040 -c 0 -i 4 -a 0 -x {0.1 4.1 -1 ---A--- null}
r -t 1.521664 -s 1 -d 2 -p tcp -e 1040 -c 0 -i 4 -a 0 -x {0.1 4.1 2 ---A--- null}
+ -t 1.521664 -s 2 -d 4 -p tcp -e 1040 -c 0 -i 4 -a 0 -x {0.1 4.1 2 ---A--- null}
- -t 1.521664 -s 2 -d 4 -p tcp -e 1040 -c 0 -i 4 -a 0 -x {0.1 4.1 2 ---A--- null}
h -t 1.521664 -s 2 -d 4 -p tcp -e 1040 -c 0 -i 4 -a 0 -x {0.1 4.1 -1 ---A--- null}
r -t 1.542496 -s 2 -d 4 -p tcp -e 1040 -c 0 -i 4 -a 0 -x {0.1 4.1 2 ---A--- null}
+ -t 1.542496 -s 4 -d 2 -p ack -e 40 -c 0 -i 5 -a 0 -x {4.1 0.1 2 ------- null}
- -t 1.542496 -s 4 -d 2 -p ack -e 40 -c 0 -i 5 -a 0 -x {4.1 0.1 2 ------- null}
h -t 1.542496 -s 4 -d 2 -p ack -e 40 -c 0 -i 5 -a 0 -x {4.1 0.1 -1 ------- null}
r -t 1.562528 -s 4 -d 2 -p ack -e 40 -c 0 -i 5 -a 0 -x {4.1 0.1 2 ------- null}
+ -t 1.562528 -s 2 -d 1 -p ack -e 40 -c 0 -i 5 -a 0 -x {4.1 0.1 2 ------- null}
- -t 1.562528 -s 2 -d 1 -p ack -e 40 -c 0 -i 5 -a 0 -x {4.1 0.1 2 ------- null}
h -t 1.562528 -s 2 -d 1 -p ack -e 40 -c 0 -i 5 -a 0 -x {4.1 0.1 -1 ------- null}
r -t 1.57256 -s 2 -d 1 -p ack -e 40 -c 0 -i 5 -a 0 -x {4.1 0.1 2 ------- null}
+ -t 1.57256 -s 1 -d 0 -p ack -e 40 -c 0 -i 5 -a 0 -x {4.1 0.1 2 ------- null}
- -t 1.57256 -s 1 -d 0 -p ack -e 40 -c 0 -i 5 -a 0 -x {4.1 0.1 2 ------- null}
h -t 1.57256 -s 1 -d 0 -p ack -e 40 -c 0 -i 5 -a 0 -x {4.1 0.1 -1 ------- null}
r -t 1.582592 -s 1 -d 0 -p ack -e 40 -c 0 -i 5 -a 0 -x {4.1 0.1 2 ------- null}
+ -t 2 -s 0 -d 1 -p tcp -e 1040 -c 0 -i 6 -a 0 -x {0.1 4.1 3 ---A--- null}
- -t 2 -s 0 -d 1 -p tcp -e 1040 -c 0 -i 6 -a 0 -x {0.1 4.1 3 ---A--- null}
h -t 2 -s 0 -d 1 -p tcp -e 1040 -c 0 -i 6 -a 0 -x {0.1 4.1 -1 ---A--- null}
r -t 2.010832 -s 0 -d 1 -p tcp -e 1040 -c 0 -i 6 -a 0 -x {0.1 4.1 3 ---A--- null}
+ -t 2.010832 -s 1 -d 2 -p tcp -e 1040 -c 0 -i 6 -a 0 -x {0.1 4.1 3 ---A--- null}
- -t 2.010832 -s 1 -d 2 -p tcp -e 1040 -c 0 -i 6 -a 0 -x {0.1 4.1 3 ---A--- null}
h -t 2.010832 -s 1 -d 2 -p tcp -e 1040 -c 0 -i 6 -a 0 -x {0.1 4.1 -1 ---A--- null}
r -t 2.021664 -s 1 -d 2 -p tcp -e 1040 -c 0 -i 6 -a 0 -x {0.1 4.1 3 ---A--- null}
+ -t 2.021664 -s 2 -d 4 -p tcp -e 1040 -c 0 -i 6 -a 0 -x {0.1 4.1 3 ---A--- null}
- -t 2.021664 -s 2 -d 4 -p tcp -e 1040 -c 0 -i 6 -a 0 -x {0.1 4.1 3 ---A--- null}
h -t 2.021664 -s 2 -d 4 -p tcp -e 1040 -c 0 -i 6 -a 0 -x {0.1 4.1 -1 ---A--- null}
r -t 2.042496 -s 2 -d 4 -p tcp -e 1040 -c 0 -i 6 -a 0 -x {0.1 4.1 3 ---A--- null}
+ -t 2.042496 -s 4 -d 2 -p ack -e 40 -c 0 -i 7 -a 0 -x {4.1 0.1 3 ------- null}
- -t 2.042496 -s 4 -d 2 -p ack -e 40 -c 0 -i 7 -a 0 -x {4.1 0.1 3 ------- null}
h -t 2.042496 -s 4 -d 2 -p ack -e 40 -c 0 -i 7 -a 0 -x {4.1 0.1 -1 ------- null}
r -t 2.062528 -s 4 -d 2 -p ack -e 40 -c 0 -i 7 -a 0 -x {4.1 0.1 3 ------- null}
+ -t 2.062528 -s 2 -d 1 -p ack -e 40 -c 0 -i 7 -a 0 -x {4.1 0.1 3 ------- null}
- -t 2.062528 -s 2 -d 1 -p ack -e 40 -c 0 -i 7 -a 0 -x {4.1 0.1 3 ------- null}
h -t 2.062528 -s 2 -d 1 -p ack -e 40 -c 0 -i 7 -a 0 -x {4.1 0.1 -1 ------- null}
r -t 2.07256 -s 2 -d 1 -p ack -e 40 -c 0 -i 7 -a 0 -x {4.1 0.1 3 ------- null}
+ -t 2.07256 -s 1 -d 0 -p ack -e 40 -c 0 -i 7 -a 0 -x {4.1 0.1 3 ------- null}
- -t 2.07256 -s 1 -d 0 -p ack -e 40 -c 0 -i 7 -a 0 -x {4.1 0.1 3 ------- null}
h -t 2.07256 -s 1 -d 0 -p ack -e 40 -c 0 -i 7 -a 0 -x {4.1 0.1 -1 ------- null}
r -t 2.082592 -s 1 -d 0 -p ack -e 40 -c 0 -i 7 -a 0 -x {4.1 0.1 3 ------- null}
+ -t 2.5 -s 0 -d 1 -p tcp -e 1040 -c 0 -i 8 -a 0 -x {0.1 4.1 4 ---A--- null}
- -t 2.5 -s 0 -d 1 -p tcp -e 1040 -c 0 -i 8 -a 0 -x {0.1 4.1 4 ---A--- null}
h -t 2.5 -s 0 -d 1 -p tcp -e 1040 -c 0 -i 8 -a 0 -x {0.1 4.1 -1 ---A--- null}
r -t 2.510832 -s 0 -d 1 -p tcp -e 1040 -c 0 -i 8 -a 0 -x {0.1 4.1 4 ---A--- null}
+ -t 2.510832 -s 1 -d 2 -p tcp -e 1040 -c 0 -i 8 -a 0 -x {0.1 4.1 4 ---A--- null}
- -t 2.510832 -s 1 -d 2 -p tcp -e 1040 -c 0 -i 8 -a 0 -x {0.1 4.1 4 ---A--- null}
h -t 2.510832 -s 1 -d 2 -p tcp -e 1040 -c 0 -i 8 -a 0 -x {0.1 4.1 -1 ---A--- null}
r -t 2.521664 -s 1 -d 2 -p tcp -e 1040 -c 0 -i 8 -a 0 -x {0.1 4.1 4 ---A--- null}
+ -t 2.521664 -s 2 -d 4 -p tcp -e 1040 -c 0 -i 8 -a 0 -x {0.1 4.1 4 ---A--- null}
- -t 2.521664 -s 2 -d 4 -p tcp -e 1040 -c 0 -i 8 -a 0 -x {0.1 4.1 4 ---A--- null}
h -t 2.521664 -s 2 -d 4 -p tcp -e 1040 -c 0 -i 8 -a 0 -x {0.1 4.1 -1 ---A--- null}
r -t 2.542496 -s 2 -d 4 -p tcp -e 1040 -c 0 -i 8 -a 0 -x {0.1 4.1 4 ---A--- null}
+ -t 2.542496 -s 4 -d 2 -p ack -e 40 -c 0 -i 9 -a 0 -x {4.1 0.1 4 ------- null}
- -t 2.542496 -s 4 -d 2 -p ack -e 40 -c 0 -i 9 -a 0 -x {4.1 0.1 4 ------- null}
h -t 2.542496 -s 4 -d 2 -p ack -e 40 -c 0 -i 9 -a 0 -x {4.1 0.1 -1 ------- null}
r -t 2.562528 -s 4 -d 2 -p ack -e 40 -c 0 -i 9 -a 0 -x {4.1 0.1 4 ------- null}
+ -t 2.562528 -s 2 -d 1 -p ack -e 40 -c 0 -i 9 -a 0 -x {4.1 0.1 4 ------- null}
- -t 2.562528 -s 2 -d 1 -p ack -e 40 -c 0 -i 9 -a 0 -x {4.1 0.1 4 ------- null}
h -t 2.562528 -s 2 -d 1 -p ack -e 40 -c 0 -i 9 -a 0 -x {4.1 0.1 -1 ------- null}
r -t 2.57256 -s 2 -d 1 -p ack -e 40 -c 0 -i 9 -a 0 -x {4.1 0.1 4 ------- null}
+ -t 2.57256 -s 1 -d 0 -p ack -e 40 -c 0 -i 9 -a 0 -x {4.1 0.1 4 ------- null}
- -t 2.57256 -s 1 -d 0 -p ack -e 40 -c 0 -i 9 -a 0 -x {4.1 0.1 4 ------- null}
h -t 2.57256 -s 1 -d 0 -p ack -e 40 -c 0 -i 9 -a 0 -x {4.1 0.1 -1 ------- null}
r -t 2.582592 -s 1 -d 0 -p ack -e 40 -c 0 -i 9 -a 0 -x {4.1 0.1 4 ------- null}
+ -t 3 -s 0 -d 1 -p tcp -e 1040 -c 0 -i 10 -a 0 -x {0.1 4.1 5 ---A--- null}
- -t 3 -s 0 -d 1 -p tcp -e 1040 -c 0 -i 10 -a 0 -x {0.1 4.1 5 ---A--- null}
h -t 3 -s 0 -d 1 -p tcp -e 1040 -c 0 -i 10 -a 0 -x {0.1 4.1 -1 ---A--- null}
r -t 3.010832 -s 0 -d 1 -p tcp -e 1040 -c 0 -i 10 -a 0 -x {0.1 4.1 5 ---A--- null}
+ -t 3.010832 -s 1 -d 2 -p tcp -e 1040 -c 0 -i 10 -a 0 -x {0.1 4.1 5 ---A--- null}
- -t 3.010832 -s 1 -d 2 -p tcp -e 1040 -c 0 -i 10 -a 0 -x {0.1 4.1 5 ---A--- null}
h -t 3.010832 -s 1 -d 2 -p tcp -e 1040 -c 0 -i 10 -a 0 -x {0.1 4.1 -1 ---A--- null}
r -t 3.021664 -s 1 -d 2 -p tcp -e 1040 -c 0 -i 10 -a 0 -x {0.1 4.1 5 ---A--- null}
+ -t 3.021664 -s 2 -d 4 -p tcp -e 1040 -c 0 -i 10 -a 0 -x {0.1 4.1 5 ---A--- null}
- -t 3.021664 -s 2 -d 4 -p tcp -e 1040 -c 0 -i 10 -a 0 -x {0.1 4.1 5 ---A--- null}
h -t 3.021664 -s 2 -d 4 -p tcp -e 1040 -c 0 -i 10 -a 0 -x {0.1 4.1 -1 ---A--- null}
r -t 3.042496 -s 2 -d 4 -p tcp -e 1040 -c 0 -i 10 -a 0 -x {0.1 4.1 5 ---A--- null}
+ -t 3.042496 -s 4 -d 2 -p ack -e 40 -c 0 -i 11 -a 0 -x {4.1 0.1 5 ------- null}
- -t 3.042496 -s 4 -d 2 -p ack -e 40 -c 0 -i 11 -a 0 -x {4.1 0.1 5 ------- null}
h -t 3.042496 -s 4 -d 2 -p ack -e 40 -c 0 -i 11 -a 0 -x {4.1 0.1 -1 ------- null}
r -t 3.062528 -s 4 -d 2 -p ack -e 40 -c 0 -i 11 -a 0 -x {4.1 0.1 5 ------- null}
+ -t 3.062528 -s 2 -d 1 -p ack -e 40 -c 0 -i 11 -a 0 -x {4.1 0.1 5 ------- null}
- -t 3.062528 -s 2 -d 1 -p ack -e 40 -c 0 -i 11 -a 0 -x {4.1 0.1 5 ------- null}
h -t 3.062528 -s 2 -d 1 -p ack -e 40 -c 0 -i 11 -a 0 -x {4.1 0.1 -1 ------- null}
r -t 3.07256 -s 2 -d 1 -p ack -e 40 -c 0 -i 11 -a 0 -x {4.1 0.1 5 ------- null}
+ -t 3.07256 -s 1 -d 0 -p ack -e 40 -c 0 -i 11 -a 0 -x {4.1 0.1 5 ------- null}
- -t 3.07256 -s 1 -d 0 -p ack -e 40 -c 0 -i 11 -a 0 -x {4.1 0.1 5 ------- null}
h -t 3.07256 -s 1 -d 0 -p ack -e 40 -c 0 -i 11 -a 0 -x {4.1 0.1 -1 ------- null}
r -t 3.082592 -s 1 -d 0 -p ack -e 40 -c 0 -i 11 -a 0 -x {4.1 0.1 5 ------- null}
+ -t 3.5 -s 0 -d 1 -p tcp -e 1040 -c 0 -i 12 -a 0 -x {0.1 4.1 6 ---A--- null}
- -t 3.5 -s 0 -d 1 -p tcp -e 1040 -c 0 -i 12 -a 0 -x {0.1 4.1 6 ---A--- null}
h -t 3.5 -s 0 -d 1 -p tcp -e 1040 -c 0 -i 12 -a 0 -x {0.1 4.1 -1 ---A--- null}
r -t 3.510832 -s 0 -d 1 -p tcp -e 1040 -c 0 -i 12 -a 0 -x {0.1 4.1 6 ---A--- null}
+ -t 3.510832 -s 1 -d 2 -p tcp -e 1040 -c 0 -i 12 -a 0 -x {0.1 4.1 6 ---A--- null}
- -t 3.510832 -s 1 -d 2 -p tcp -e 1040 -c 0 -i 12 -a 0 -x {0.1 4.1 6 ---A--- null}
h -t 3.510832 -s 1 -d 2 -p tcp -e 1040 -c 0 -i 12 -a 0 -x {0.1 4.1 -1 ---A--- null}
r -t 3.521664 -s 1 -d 2 -p tcp -e 1040 -c 0 -i 12 -a 0 -x {0.1 4.1 6 ---A--- null}
+ -t 3.521664 -s 2 -d 4 -p tcp -e 1040 -c 0 -i 12 -a 0 -x {0.1 4.1 6 ---A--- null}
- -t 3.521664 -s 2 -d 4 -p tcp -e 1040 -c 0 -i 12 -a 0 -x {0.1 4.1 6 ---A--- null}
h -t 3.521664 -s 2 -d 4 -p tcp -e 1040 -c 0 -i 12 -a 0 -x {0.1 4.1 -1 ---A--- null}
r -t 3.542496 -s 2 -d 4 -p tcp -e 1040 -c 0 -i 12 -a 0 -x {0.1 4.1 6 ---A--- null}
+ -t 3.542496 -s 4 -d 2 -p ack -e 40 -c 0 -i 13 -a 0 -x {4.1 0.1 6 ------- null}
- -t 3.542496 -s 4 -d 2 -p ack -e 40 -c 0 -i 13 -a 0 -x {4.1 0.1 6 ------- null}
h -t 3.542496 -s 4 -d 2 -p ack -e 40 -c 0 -i 13 -a 0 -x {4.1 0.1 -1 ------- null}
r -t 3.562528 -s 4 -d 2 -p ack -e 40 -c 0 -i 13 -a 0 -x {4.1 0.1 6 ------- null}
+ -t 3.562528 -s 2 -d 1 -p ack -e 40 -c 0 -i 13 -a 0 -x {4.1 0.1 6 ------- null}
- -t 3.562528 -s 2 -d 1 -p ack -e 40 -c 0 -i 13 -a 0 -x {4.1 0.1 6 ------- null}
h -t 3.562528 -s 2 -d 1 -p ack -e 40 -c 0 -i 13 -a 0 -x {4.1 0.1 -1 ------- null}
r -t 3.57256 -s 2 -d 1 -p ack -e 40 -c 0 -i 13 -a 0 -x {4.1 0.1 6 ------- null}
+ -t 3.57256 -s 1 -d 0 -p ack -e 40 -c 0 -i 13 -a 0 -x {4.1 0.1 6 ------- null}
- -t 3.57256 -s 1 -d 0 -p ack -e 40 -c 0 -i 13 -a 0 -x {4.1 0.1 6 ------- null}
h -t 3.57256 -s 1 -d 0 -p ack -e 40 -c 0 -i 13 -a 0 -x {4.1 0.1 -1 ------- null}
r -t 3.582592 -s 1 -d 0 -p ack -e 40 -c 0 -i 13 -a 0 -x {4.1 0.1 6 ------- null}
+ -t 4 -s 0 -d 1 -p tcp -e 1040 -c 0 -i 14 -a 0 -x {0.1 4.1 7 ---A--- null}
- -t 4 -s 0 -d 1 -p tcp -e 1040 -c 0 -i 14 -a 0 -x {0.1 4.1 7 ---A--- null}
h -t 4 -s 0 -d 1 -p tcp -e 1040 -c 0 -i 14 -a 0 -x {0.1 4.1 -1 ---A--- null}
r -t 4.010832 -s 0 -d 1 -p tcp -e 1040 -c 0 -i 14 -a 0 -x {0.1 4.1 7 ---A--- null}
+ -t 4.010832 -s 1 -d 2 -p tcp -e 1040 -c 0 -i 14 -a 0 -x {0.1 4.1 7 ---A--- null}
- -t 4.010832 -s 1 -d 2 -p tcp -e 1040 -c 0 -i 14 -a 0 -x {0.1 4.1 7 ---A--- null}
h -t 4.010832 -s 1 -d 2 -p tcp -e 1040 -c 0 -i 14 -a 0 -x {0.1 4.1 -1 ---A--- null}
r -t 4.021664 -s 1 -d 2 -p tcp -e 1040 -c 0 -i 14 -a 0 -x {0.1 4.1 7 ---A--- null}
+ -t 4.021664 -s 2 -d 4 -p tcp -e 1040 -c 0 -i 14 -a 0 -x {0.1 4.1 7 ---A--- null}
- -t 4.021664 -s 2 -d 4 -p tcp -e 1040 -c 0 -i 14 -a 0 -x {0.1 4.1 7 ---A--- null}
h -t 4.021664 -s 2 -d 4 -p tcp -e 1040 -c 0 -i 14 -a 0 -x {0.1 4.1 -1 ---A--- null}
r -t 4.042496 -s 2 -d 4 -p tcp -e 1040 -c 0 -i 14 -a 0 -x {0.1 4.1 7 ---A--- null}
+ -t 4.042496 -s 4 -d 2 -p ack -e 40 -c 0 -i 15 -a 0 -x {4.1 0.1 7 ------- null}
- -t 4.042496 -s 4 -d 2 -p ack -e 40 -c 0 -i 15 -a 0 -x {4.1 0.1 7 ------- null}
h -t 4.042496 -s 4 -d 2 -p ack -e 40 -c 0 -i 15 -a 0 -x {4.1 0.1 -1 ------- null}
r -t 4.062528 -s 4 -d 2 -p ack -e 40 -c 0 -i 15 -a 0 -x {4.1 0.1 7 ------- null}
+ -t 4.062528 -s 2 -d 1 -p ack -e 40 -c 0 -i 15 -a 0 -x {4.1 0.1 7 ------- null}
- -t 4.062528 -s 2 -d 1 -p ack -e 40 -c 0 -i 15 -a 0 -x {4.1 0.1 7 ------- null}
h -t 4.062528 -s 2 -d 1 -p ack -e 40 -c 0 -i 15 -a 0 -x {4.1 0.1 -1 ------- null}
r -t 4.07256 -s 2 -d 1 -p ack -e 40 -c 0 -i 15 -a 0 -x {4.1 0.1 7 ------- null}
+ -t 4.07256 -s 1 -d 0 -p ack -e 40 -c 0 -i 15 -a 0 -x {4.1 0.1 7 ------- null}
- -t 4.07256 -s 1 -d 0 -p ack -e 40 -c 0 -i 15 -a 0 -x {4.1 0.1 7 ------- null}
h -t 4.07256 -s 1 -d 0 -p ack -e 40 -c 0 -i 15 -a 0 -x {4.1 0.1 -1 ------- null}
r -t 4.082592 -s 1 -d 0 -p ack -e 40 -c 0 -i 15 -a 0 -x {4.1 0.1 7 ------- null}
+ -t 4.5 -s 0 -d 1 -p tcp -e 1040 -c 0 -i 16 -a 0 -x {0.1 4.1 8 ---A--- null}
- -t 4.5 -s 0 -d 1 -p tcp -e 1040 -c 0 -i 16 -a 0 -x {0.1 4.1 8 ---A--- null}
h -t 4.5 -s 0 -d 1 -p tcp -e 1040 -c 0 -i 16 -a 0 -x {0.1 4.1 -1 ---A--- null}
r -t 4.510832 -s 0 -d 1 -p tcp -e 1040 -c 0 -i 16 -a 0 -x {0.1 4.1 8 ---A--- null}
+ -t 4.510832 -s 1 -d 2 -p tcp -e 1040 -c 0 -i 16 -a 0 -x {0.1 4.1 8 ---A--- null}
- -t 4.510832 -s 1 -d 2 -p tcp -e 1040 -c 0 -i 16 -a 0 -x {0.1 4.1 8 ---A--- null}
h -t 4.510832 -s 1 -d 2 -p tcp -e 1040 -c 0 -i 16 -a 0 -x {0.1 4.1 -1 ---A--- null}
r -t 4.521664 -s 1 -d 2 -p tcp -e 1040 -c 0 -i 16 -a 0 -x {0.1 4.1 8 ---A--- null}
+ -t 4.521664 -s 2 -d 4 -p tcp -e 1040 -c 0 -i 16 -a 0 -x {0.1 4.1 8 ---A--- null}
- -t 4.521664 -s 2 -d 4 -p tcp -e 1040 -c 0 -i 16 -a 0 -x {0.1 4.1 8 ---A--- null}
h -t 4.521664 -s 2 -d 4 -p tcp -e 1040 -c 0 -i 16 -a 0 -x {0.1 4.1 -1 ---A--- null}
r -t 4.542496 -s 2 -d 4 -p tcp -e 1040 -c 0 -i 16 -a 0 -x {0.1 4.1 8 ---A--- null}
+ -t 4.542496 -s 4 -d 2 -p ack -e 40 -c 0 -i 17 -a 0 -x {4.1 0.1 8 ------- null}
- -t 4.542496 -s 4 -d 2 -p ack -e 40 -c 0 -i 17 -a 0 -x {4.1 0.1 8 ------- null}
h -t 4.542496 -s 4 -d 2 -p ack -e 40 -c 0 -i 17 -a 0 -x {4.1 0.1 -1 ------- null}
r -t 4.562528 -s 4 -d 2 -p ack -e 40 -c 0 -i 17 -a 0 -x {4.1 0.1 8 ------- null}
+ -t 4.562528 -s 2 -d 1 -p ack -e 40 -c 0 -i 17 -a 0 -x {4.1 0.1 8 ------- null}
- -t 4.562528 -s 2 -d 1 -p ack -e 40 -c 0 -i 17 -a 0 -x {4.1 0.1 8 ------- null}
h -t 4.562528 -s 2 -d 1 -p ack -e 40 -c 0 -i 17 -a 0 -x {4.1 0.1 -1 ------- null}
r -t 4.57256 -s 2 -d 1 -p ack -e 40 -c 0 -i 17 -a 0 -x {4.1 0.1 8 ------- null}
+ -t 4.57256 -s 1 -d 0 -p ack -e 40 -c 0 -i 17 -a 0 -x {4.1 0.1 8 ------- null}
- -t 4.57256 -s 1 -d 0 -p ack -e 40 -c 0 -i 17 -a 0 -x {4.1 0.1 8 ------- null}
h -t 4.57256 -s 1 -d 0 -p ack -e 40 -c 0 -i 17 -a 0 -x {4.1 0.1 -1 ------- null}
r -t 4.582592 -s 1 -d 0 -p ack -e 40 -c 0 -i 17 -a 0 -x {4.1 0.1 8 ------- null}
+ -t 5 -s 0 -d 1 -p tcp -e 1040 -c 0 -i 18 -a 0 -x {0.1 4.1 9 ---A--- null}
- -t 5 -s 0 -d 1 -p tcp -e 1040 -c 0 -i 18 -a 0 -x {0.1 4.1 9 ---A--- null}
h -t 5 -s 0 -d 1 -p tcp -e 1040 -c 0 -i 18 -a 0 -x {0.1 4.1 -1 ---A--- null}
r -t 5.010832 -s 0 -d 1 -p tcp -e 1040 -c 0 -i 18 -a 0 -x {0.1 4.1 9 ---A--- null}
+ -t 5.010832 -s 1 -d 2 -p tcp -e 1040 -c 0 -i 18 -a 0 -x {0.1 4.1 9 ---A--- null}
- -t 5.010832 -s 1 -d 2 -p tcp -e 1040 -c 0 -i 18 -a 0 -x {0.1 4.1 9 ---A--- null}
h -t 5.010832 -s 1 -d 2 -p tcp -e 1040 -c 0 -i 18 -a 0 -x {0.1 4.1 -1 ---A--- null}
r -t 5.021664 -s 1 -d 2 -p tcp -e 1040 -c 0 -i 18 -a 0 -x {0.1 4.1 9 ---A--- null}
+ -t 5.021664 -s 2 -d 4 -p tcp -e 1040 -c 0 -i 18 -a 0 -x {0.1 4.1 9 ---A--- null}
- -t 5.021664 -s 2 -d 4 -p tcp -e 1040 -c 0 -i 18 -a 0 -x {0.1 4.1 9 ---A--- null}
h -t 5.021664 -s 2 -d 4 -p tcp -e 1040 -c 0 -i 18 -a 0 -x {0.1 4.1 -1 ---A--- null}
r -t 5.042496 -s 2 -d 4 -p tcp -e 1040 -c 0 -i 18 -a 0 -x {0.1 4.1 9 ---A--- null}
+ -t 5.042496 -s 4 -d 2 -p ack -e 40 -c 0 -i 19 -a 0 -x {4.1 0.1 9 ------- null}
- -t 5.042496 -s 4 -d 2 -p ack -e 40 -c 0 -i 19 -a 0 -x {4.1 0.1 9 ------- null}
h -t 5.042496 -s 4 -d 2 -p ack -e 40 -c 0 -i 19 -a 0 -x {4.1 0.1 -1 ------- null}
r -t 5.062528 -s 4 -d 2 -p ack -e 40 -c 0 -i 19 -a 0 -x {4.1 0.1 9 ------- null}
+ -t 5.062528 -s 2 -d 1 -p ack -e 40 -c 0 -i 19 -a 0 -x {4.1 0.1 9 ------- null}
- -t 5.062528 -s 2 -d 1 -p ack -e 40 -c 0 -i 19 -a 0 -x {4.1 0.1 9 ------- null}
h -t 5.062528 -s 2 -d 1 -p ack -e 40 -c 0 -i 19 -a 0 -x {4.1 0.1 -1 ------- null}
r -t 5.07256 -s 2 -d 1 -p ack -e 40 -c 0 -i 19 -a 0 -x {4.1 0.1 9 ------- null}
+ -t 5.07256 -s 1 -d 0 -p ack -e 40 -c 0 -i 19 -a 0 -x {4.1 0.1 9 ------- null}
- -t 5.07256 -s 1 -d 0 -p ack -e 40 -c 0 -i 19 -a 0 -x {4.1 0.1 9 ------- null}
h -t 5.07256 -s 1 -d 0 -p ack -e 40 -c 0 -i 19 -a 0 -x {4.1 0.1 -1 ------- null}
r -t 5.082592 -s 1 -d 0 -p ack -e 40 -c 0 -i 19 -a 0 -x {4.1 0.1 9 ------- null}
+ -t 5.5 -s 0 -d 1 -p tcp -e 1040 -c 0 -i 20 -a 0 -x {0.1 4.1 10 ---A--- null}
- -t 5.5 -s 0 -d 1 -p tcp -e 1040 -c 0 -i 20 -a 0 -x {0.1 4.1 10 ---A--- null}
h -t 5.5 -s 0 -d 1 -p tcp -e 1040 -c 0 -i 20 -a 0 -x {0.1 4.1 -1 ---A--- null}
r -t 5.510832 -s 0 -d 1 -p tcp -e 1040 -c 0 -i 20 -a 0 -x {0.1 4.1 10 ---A--- null}
+ -t 5.510832 -s 1 -d 2 -p tcp -e 1040 -c 0 -i 20 -a 0 -x {0.1 4.1 10 ---A--- null}
- -t 5.510832 -s 1 -d 2 -p tcp -e 1040 -c 0 -i 20 -a 0 -x {0.1 4.1 10 ---A--- null}
h -t 5.510832 -s 1 -d 2 -p tcp -e 1040 -c 0 -i 20 -a 0 -x {0.1 4.1 -1 ---A--- null}
r -t 5.521664 -s 1 -d 2 -p tcp -e 1040 -c 0 -i 20 -a 0 -x {0.1 4.1 10 ---A--- null}
+ -t 5.521664 -s 2 -d 4 -p tcp -e 1040 -c 0 -i 20 -a 0 -x {0.1 4.1 10 ---A--- null}
- -t 5.521664 -s 2 -d 4 -p tcp -e 1040 -c 0 -i 20 -a 0 -x {0.1 4.1 10 ---A--- null}
h -t 5.521664 -s 2 -d 4 -p tcp -e 1040 -c 0 -i 20 -a 0 -x {0.1 4.1 -1 ---A--- null}
r -t 5.542496 -s 2 -d 4 -p tcp -e 1040 -c 0 -i 20 -a 0 -x {0.1 4.1 10 ---A--- null}
+ -t 5.542496 -s 4 -d 2 -p ack -e 40 -c 0 -i 21 -a 0 -x {4.1 0.1 10 ------- null}
- -t 5.542496 -s 4 -d 2 -p ack -e 40 -c 0 -i 21 -a 0 -x {4.1 0.1 10 ------- null}
h -t 5.542496 -s 4 -d 2 -p ack -e 40 -c 0 -i 21 -a 0 -x {4.1 0.1 -1 ------- null}
r -t 5.562528 -s 4 -d 2 -p ack -e 40 -c 0 -i 21 -a 0 -x {4.1 0.1 10 ------- null}
+ -t 5.562528 -s 2 -d 1 -p ack -e 40 -c 0 -i 21 -a 0 -x {4.1 0.1 10 ------- null}
- -t 5.562528 -s 2 -d 1 -p ack -e 40 -c 0 -i 21 -a 0 -x {4.1 0.1 10 ------- null}
h -t 5.562528 -s 2 -d 1 -p ack -e 40 -c 0 -i 21 -a 0 -x {4.1 0.1 -1 ------- null}
r -t 5.57256 -s 2 -d 1 -p ack -e 40 -c 0 -i 21 -a 0 -x {4.1 0.1 10 ------- null}
+ -t 5.57256 -s 1 -d 0 -p ack -e 40 -c 0 -i 21 -a 0 -x {4.1 0.1 10 ------- null}
- -t 5.57256 -s 1 -d 0 -p ack -e 40 -c 0 -i 21 -a 0 -x {4.1 0.1 10 ------- null}
h -t 5.57256 -s 1 -d 0 -p ack -e 40 -c 0 -i 21 -a 0 -x {4.1 0.1 -1 ------- null}
r -t 5.582592 -s 1 -d 0 -p ack -e 40 -c 0 -i 21 -a 0 -x {4.1 0.1 10 ------- null}
+ -t 6 -s 0 -d 1 -p tcp -e 1040 -c 0 -i 22 -a 0 -x {0.1 4.1 11 ---A--- null}
- -t 6 -s 0 -d 1 -p tcp -e 1040 -c 0 -i 22 -a 0 -x {0.1 4.1 11 ---A--- null}
h -t 6 -s 0 -d 1 -p tcp -e 1040 -c 0 -i 22 -a 0 -x {0.1 4.1 -1 ---A--- null}
r -t 6.010832 -s 0 -d 1 -p tcp -e 1040 -c 0 -i 22 -a 0 -x {0.1 4.1 11 ---A--- null}
+ -t 6.010832 -s 1 -d 2 -p tcp -e 1040 -c 0 -i 22 -a 0 -x {0.1 4.1 11 ---A--- null}
- -t 6.010832 -s 1 -d 2 -p tcp -e 1040 -c 0 -i 22 -a 0 -x {0.1 4.1 11 ---A--- null}
h -t 6.010832 -s 1 -d 2 -p tcp -e 1040 -c 0 -i 22 -a 0 -x {0.1 4.1 -1 ---A--- null}
r -t 6.021664 -s 1 -d 2 -p tcp -e 1040 -c 0 -i 22 -a 0 -x {0.1 4.1 11 ---A--- null}
+ -t 6.021664 -s 2 -d 4 -p tcp -e 1040 -c 0 -i 22 -a 0 -x {0.1 4.1 11 ---A--- null}
- -t 6.021664 -s 2 -d 4 -p tcp -e 1040 -c 0 -i 22 -a 0 -x {0.1 4.1 11 ---A--- null}
h -t 6.021664 -s 2 -d 4 -p tcp -e 1040 -c 0 -i 22 -a 0 -x {0.1 4.1 -1 ---A--- null}
r -t 6.042496 -s 2 -d 4 -p tcp -e 1040 -c 0 -i 22 -a 0 -x {0.1 4.1 11 ---A--- null}
+ -t 6.042496 -s 4 -d 2 -p ack -e 40 -c 0 -i 23 -a 0 -x {4.1 0.1 11 ------- null}
- -t 6.042496 -s 4 -d 2 -p ack -e 40 -c 0 -i 23 -a 0 -x {4.1 0.1 11 ------- null}
h -t 6.042496 -s 4 -d 2 -p ack -e 40 -c 0 -i 23 -a 0 -x {4.1 0.1 -1 ------- null}
r -t 6.062528 -s 4 -d 2 -p ack -e 40 -c 0 -i 23 -a 0 -x {4.1 0.1 11 ------- null}
+ -t 6.062528 -s 2 -d 1 -p ack -e 40 -c 0 -i 23 -a 0 -x {4.1 0.1 11 ------- null}
- -t 6.062528 -s 2 -d 1 -p ack -e 40 -c 0 -i 23 -a 0 -x {4.1 0.1 11 ------- null}
h -t 6.062528 -s 2 -d 1 -p ack -e 40 -c 0 -i 23 -a 0 -x {4.1 0.1 -1 ------- null}
r -t 6.07256 -s 2 -d 1 -p ack -e 40 -c 0 -i 23 -a 0 -x {4.1 0.1 11 ------- null}
+ -t 6.07256 -s 1 -d 0 -p ack -e 40 -c 0 -i 23 -a 0 -x {4.1 0.1 11 ------- null}
- -t 6.07256 -s 1 -d 0 -p ack -e 40 -c 0 -i 23 -a 0 -x {4.1 0.1 11 ------- null}
h -t 6.07256 -s 1 -d 0 -p ack -e 40 -c 0 -i 23 -a 0 -x {4.1 0.1 -1 ------- null}
r -t 6.082592 -s 1 -d 0 -p ack -e 40 -c 0 -i 23 -a 0 -x {4.1 0.1 11 ------- null}
+ -t 6.5 -s 0 -d 1 -p tcp -e 1040 -c 0 -i 24 -a 0 -x {0.1 4.1 12 ---A--- null}
- -t 6.5 -s 0 -d 1 -p tcp -e 1040 -c 0 -i 24 -a 0 -x {0.1 4.1 12 ---A--- null}
h -t 6.5 -s 0 -d 1 -p tcp -e 1040 -c 0 -i 24 -a 0 -x {0.1 4.1 -1 ---A--- null}
r -t 6.510832 -s 0 -d 1 -p tcp -e 1040 -c 0 -i 24 -a 0 -x {0.1 4.1 12 ---A--- null}
+ -t 6.510832 -s 1 -d 2 -p tcp -e 1040 -c 0 -i 24 -a 0 -x {0.1 4.1 12 ---A--- null}
- -t 6.510832 -s 1 -d 2 -p tcp -e 1040 -c 0 -i 24 -a 0 -x {0.1 4.1 12 ---A--- null}
h -t 6.510832 -s 1 -d 2 -p tcp -e 1040 -c 0 -i 24 -a 0 -x {0.1 4.1 -1 ---A--- null}
r -t 6.521664 -s 1 -d 2 -p tcp -e 1040 -c 0 -i 24 -a 0 -x {0.1 4.1 12 ---A--- null}
+ -t 6.521664 -s 2 -d 4 -p tcp -e 1040 -c 0 -i 24 -a 0 -x {0.1 4.1 12 ---A--- null}
- -t 6.521664 -s 2 -d 4 -p tcp -e 1040 -c 0 -i 24 -a 0 -x {0.1 4.1 12 ---A--- null}
h -t 6.521664 -s 2 -d 4 -p tcp -e 1040 -c 0 -i 24 -a 0 -x {0.1 4.1 -1 ---A--- null}
r -t 6.542496 -s 2 -d 4 -p tcp -e 1040 -c 0 -i 24 -a 0 -x {0.1 4.1 12 ---A--- null}
+ -t 6.542496 -s 4 -d 2 -p ack -e 40 -c 0 -i 25 -a 0 -x {4.1 0.1 12 ------- null}
- -t 6.542496 -s 4 -d 2 -p ack -e 40 -c 0 -i 25 -a 0 -x {4.1 0.1 12 ------- null}
h -t 6.542496 -s 4 -d 2 -p ack -e 40 -c 0 -i 25 -a 0 -x {4.1 0.1 -1 ------- null}
r -t 6.562528 -s 4 -d 2 -p ack -e 40 -c 0 -i 25 -a 0 -x {4.1 0.1 12 ------- null}
+ -t 6.562528 -s 2 -d 1 -p ack -e 40 -c 0 -i 25 -a 0 -x {4.1 0.1 12 ------- null}
- -t 6.562528 -s 2 -d 1 -p ack -e 40 -c 0 -i 25 -a 0 -x {4.1 0.1 12 ------- null}
h -t 6.562528 -s 2 -d 1 -p ack -e 40 -c 0 -i 25 -a 0 -x {4.1 0.1 -1 ------- null}
r -t 6.57256 -s 2 -d 1 -p ack -e 40 -c 0 -i 25 -a 0 -x {4.1 0.1 12 ------- null}
+ -t 6.57256 -s 1 -d 0 -p ack -e 40 -c 0 -i 25 -a 0 -x {4.1 0.1 12 ------- null}
- -t 6.57256 -s 1 -d 0 -p ack -e 40 -c 0 -i 25 -a 0 -x {4.1 0.1 12 ------- null}
h -t 6.57256 -s 1 -d 0 -p ack -e 40 -c 0 -i 25 -a 0 -x {4.1 0.1 -1 ------- null}
r -t 6.582592 -s 1 -d 0 -p ack -e 40 -c 0 -i 25 -a 0 -x {4.1 0.1 12 ------- null}
+ -t 7 -s 0 -d 1 -p tcp -e 1040 -c 0 -i 26 -a 0 -x {0.1 4.1 13 ---A--- null}
- -t 7 -s 0 -d 1 -p tcp -e 1040 -c 0 -i 26 -a 0 -x {0.1 4.1 13 ---A--- null}
h -t 7 -s 0 -d 1 -p tcp -e 1040 -c 0 -i 26 -a 0 -x {0.1 4.1 -1 ---A--- null}
r -t 7.010832 -s 0 -d 1 -p tcp -e 1040 -c 0 -i 26 -a 0 -x {0.1 4.1 13 ---A--- null}
+ -t 7.010832 -s 1 -d 2 -p tcp -e 1040 -c 0 -i 26 -a 0 -x {0.1 4.1 13 ---A--- null}
- -t 7.010832 -s 1 -d 2 -p tcp -e 1040 -c 0 -i 26 -a 0 -x {0.1 4.1 13 ---A--- null}
h -t 7.010832 -s 1 -d 2 -p tcp -e 1040 -c 0 -i 26 -a 0 -x {0.1 4.1 -1 ---A--- null}
r -t 7.021664 -s 1 -d 2 -p tcp -e 1040 -c 0 -i 26 -a 0 -x {0.1 4.1 13 ---A--- null}
+ -t 7.021664 -s 2 -d 4 -p tcp -e 1040 -c 0 -i 26 -a 0 -x {0.1 4.1 13 ---A--- null}
- -t 7.021664 -s 2 -d 4 -p tcp -e 1040 -c 0 -i 26 -a 0 -x {0.1 4.1 13 ---A--- null}
h -t 7.021664 -s 2 -d 4 -p tcp -e 1040 -c 0 -i 26 -a 0 -x {0.1 4.1 -1 ---A--- null}
r -t 7.042496 -s 2 -d 4 -p tcp -e 1040 -c 0 -i 26 -a 0 -x {0.1 4.1 13 ---A--- null}
+ -t 7.042496 -s 4 -d 2 -p ack -e 40 -c 0 -i 27 -a 0 -x {4.1 0.1 13 ------- null}
- -t 7.042496 -s 4 -d 2 -p ack -e 40 -c 0 -i 27 -a 0 -x {4.1 0.1 13 ------- null}
h -t 7.042496 -s 4 -d 2 -p ack -e 40 -c 0 -i 27 -a 0 -x {4.1 0.1 -1 ------- null}
r -t 7.062528 -s 4 -d 2 -p ack -e 40 -c 0 -i 27 -a 0 -x {4.1 0.1 13 ------- null}
+ -t 7.062528 -s 2 -d 1 -p ack -e 40 -c 0 -i 27 -a 0 -x {4.1 0.1 13 ------- null}
- -t 7.062528 -s 2 -d 1 -p ack -e 40 -c 0 -i 27 -a 0 -x {4.1 0.1 13 ------- null}
h -t 7.062528 -s 2 -d 1 -p ack -e 40 -c 0 -i 27 -a 0 -x {4.1 0.1 -1 ------- null}
r -t 7.07256 -s 2 -d 1 -p ack -e 40 -c 0 -i 27 -a 0 -x {4.1 0.1 13 ------- null}
+ -t 7.07256 -s 1 -d 0 -p ack -e 40 -c 0 -i 27 -a 0 -x {4.1 0.1 13 ------- null}
- -t 7.07256 -s 1 -d 0 -p ack -e 40 -c 0 -i 27 -a 0 -x {4.1 0.1 13 ------- null}
h -t 7.07256 -s 1 -d 0 -p ack -e 40 -c 0 -i 27 -a 0 -x {4.1 0.1 -1 ------- null}
r -t 7.082592 -s 1 -d 0 -p ack -e 40 -c 0 -i 27 -a 0 -x {4.1 0.1 13 ------- null}
+ -t 7.5 -s 0 -d 1 -p tcp -e 1040 -c 0 -i 28 -a 0 -x {0.1 4.1 14 ---A--- null}
- -t 7.5 -s 0 -d 1 -p tcp -e 1040 -c 0 -i 28 -a 0 -x {0.1 4.1 14 ---A--- null}
h -t 7.5 -s 0 -d 1 -p tcp -e 1040 -c 0 -i 28 -a 0 -x {0.1 4.1 -1 ---A--- null}
r -t 7.510832 -s 0 -d 1 -p tcp -e 1040 -c 0 -i 28 -a 0 -x {0.1 4.1 14 ---A--- null}
+ -t 7.510832 -s 1 -d 2 -p tcp -e 1040 -c 0 -i 28 -a 0 -x {0.1 4.1 14 ---A--- null}
- -t 7.510832 -s 1 -d 2 -p tcp -e 1040 -c 0 -i 28 -a 0 -x {0.1 4.1 14 ---A--- null}
h -t 7.510832 -s 1 -d 2 -p tcp -e 1040 -c 0 -i 28 -a 0 -x {0.1 4.1 -1 ---A--- null}
r -t 7.521664 -s 1 -d 2 -p tcp -e 1040 -c 0 -i 28 -a 0 -x {0.1 4.1 14 ---A--- null}
+ -t 7.521664 -s 2 -d 4 -p tcp -e 1040 -c 0 -i 28 -a 0 -x {0.1 4.1 14 ---A--- null}
- -t 7.521664 -s 2 -d 4 -p tcp -e 1040 -c 0 -i 28 -a 0 -x {0.1 4.1 14 ---A--- null}
h -t 7.521664 -s 2 -d 4 -p tcp -e 1040 -c 0 -i 28 -a 0 -x {0.1 4.1 -1 ---A--- null}
r -t 7.542496 -s 2 -d 4 -p tcp -e 1040 -c 0 -i 28 -a 0 -x {0.1 4.1 14 ---A--- null}
+ -t 7.542496 -s 4 -d 2 -p ack -e 40 -c 0 -i 29 -a 0 -x {4.1 0.1 14 ------- null}
- -t 7.542496 -s 4 -d 2 -p ack -e 40 -c 0 -i 29 -a 0 -x {4.1 0.1 14 ------- null}
h -t 7.542496 -s 4 -d 2 -p ack -e 40 -c 0 -i 29 -a 0 -x {4.1 0.1 -1 ------- null}
r -t 7.562528 -s 4 -d 2 -p ack -e 40 -c 0 -i 29 -a 0 -x {4.1 0.1 14 ------- null}
+ -t 7.562528 -s 2 -d 1 -p ack -e 40 -c 0 -i 29 -a 0 -x {4.1 0.1 14 ------- null}
- -t 7.562528 -s 2 -d 1 -p ack -e 40 -c 0 -i 29 -a 0 -x {4.1 0.1 14 ------- null}
h -t 7.562528 -s 2 -d 1 -p ack -e 40 -c 0 -i 29 -a 0 -x {4.1 0.1 -1 ------- null}
r -t 7.57256 -s 2 -d 1 -p ack -e 40 -c 0 -i 29 -a 0 -x {4.1 0.1 14 ------- null}
+ -t 7.57256 -s 1 -d 0 -p ack -e 40 -c 0 -i 29 -a 0 -x {4.1 0.1 14 ------- null}
- -t 7.57256 -s 1 -d 0 -p ack -e 40 -c 0 -i 29 -a 0 -x {4.1 0.1 14 ------- null}
h -t 7.57256 -s 1 -d 0 -p ack -e 40 -c 0 -i 29 -a 0 -x {4.1 0.1 -1 ------- null}
r -t 7.582592 -s 1 -d 0 -p ack -e 40 -c 0 -i 29 -a 0 -x {4.1 0.1 14 ------- null}
+ -t 8 -s 0 -d 1 -p tcp -e 1040 -c 0 -i 30 -a 0 -x {0.1 4.1 15 ---A--- null}