+ 1 0 1 tcp 40 ------- 0 0.1 4.1 0 0
- 1 0 1 tcp 40 ------- 0 0.1 4.1 0 0
r 1.010032 0 1 tcp 40 ------- 0 0.1 4.1 0 0
+ 1.010032 1 2 tcp 40 ------- 0 0.1 4.1 0 0
- 1.010032 1 2 tcp 40 ------- 0 0.1 4.1 0 0
r 1.020064 1 2 tcp 40 ------- 0 0.1 4.1 0 0
+ 1.020064 2 4 tcp 40 ------- 0 0.1 4.1 0 0
- 1.020064 2 4 tcp 40 ------- 0 0.1 4.1 0 0
r 1.040096 2 4 tcp 40 ------- 0 0.1 4.1 0 0
+ 1.040096 4 2 ack 40 ------- 0 4.1 0.1 0 1
- 1.040096 4 2 ack 40 ------- 0 4.1 0.1 0 1
r 1.060128 4 2 ack 40 ------- 0 4.1 0.1 0 1
+ 1.060128 2 1 ack 40 ------- 0 4.1 0.1 0 1
- 1.060128 2 1 ack 40 ------- 0 4.1 0.1 0 1
r 1.07016 2 1 ack 40 ------- 0 4.1 0.1 0 1
+ 1.07016 1 0 ack 40 ------- 0 4.1 0.1 0 1
- 1.07016 1 0 ack 40 ------- 0 4.1 0.1 0 1
r 1.080192 1 0 ack 40 ------- 0 4.1 0.1 0 1
+ 1.080192 0 1 tcp 1040 ------- 0 0.1 4.1 1 2
- 1.080192 0 1 tcp 1040 ------- 0 0.1 4.1 1 2
r 1.091024 0 1 tcp 1040 ------- 0 0.1 4.1 1 2
+ 1.091024 1 2 tcp 1040 ------- 0 0.1 4.1 1 2
- 1.091024 1 2 tcp 1040 ------- 0 0.1 4.1 1 2
r 1.101856 1 2 tcp 1040 ------- 0 0.1 4.1 1 2
+ 1.101856 2 4 tcp 1040 ------- 0 0.1 4.1 1 2
- 1.101856 2 4 tcp 1040 ------- 0 0.1 4.1 1 2
r 1.122688 2 4 tcp 1040 ------- 0 0.1 4.1 1 2
+ 1.122688 4 2 ack 40 ------- 0 4.1 0.1 1 3
- 1.122688 4 2 ack 40 ------- 0 4.1 0.1 1 3
r 1.14272 4 2 ack 40 ------- 0 4.1 0.1 1 3
+ 1.14272 2 1 ack 40 ------- 0 4.1 0.1 1 3
- 1.14272 2 1 ack 40 ------- 0 4.1 0.1 1 3
r 1.152752 2 1 ack 40 ------- 0 4.1 0.1 1 3
+ 1.152752 1 0 ack 40 ------- 0 4.1 0.1 1 3
- 1.152752 1 0 ack 40 ------- 0 4.1 0.1 1 3
r 1.162784 1 0 ack 40 ------- 0 4.1 0.1 1 3
+ 1.5 0 1 tcp 1040 ---A--- 0 0.1 4.1 2 4
- 1.5 0 1 tcp 1040 ---A--- 0 0.1 4.1 2 4
r 1.510832 0 1 tcp 1040 ---A--- 0 0.1 4.1 2 4
+ 1.510832 1 2 tcp 1040 ---A--- 0 0.1 4.1 2 4
- 1.510832 1 2 tcp 1040 ---A--- 0 0.1 4.1 2 4
r 1.521664 1 2 tcp 1040 ---A--- 0 0.1 4.1 2 4
+ 1.521664 2 4 tcp 1040 ---A--- 0 0.1 4.1 2 4
- 1.521664 2 4 tcp 1040 ---A--- 0 0.1 4.1 2 4
r 1.542496 2 4 tcp 1040 ---A--- 0 0.1 4.1 2 4
+ 1.542496 4 2 ack 40 ------- 0 4.1 0.1 2 5
- 1.542496 4 2 ack 40 ------- 0 4.1 0.1 2 5
r 1.562528 4 2 ack 40 ------- 0 4.1 0.1 2 5
+ 1.562528 2 1 ack 40 ------- 0 4.1 0.1 2 5
- 1.562528 2 1 ack 40 ------- 0 4.1 0.1 2 5
r 1.57256 2 1 ack 40 ------- 0 4.1 0.1 2 5
+ 1.57256 1 0 ack 40 ------- 0 4.1 0.1 2 5
- 1.57256 1 0 ack 40 ------- 0 4.1 0.1 2 5
r 1.582592 1 0 ack 40 ------- 0 4.1 0.1 2 5
+ 2 0 1 tcp 1040 ---A--- 0 0.1 4.1 3 6
- 2 0 1 tcp 1040 ---A--- 0 0.1 4.1 3 6
r 2.010832 0 1 tcp 1040 ---A--- 0 0.1 4.1 3 6
+ 2.010832 1 2 tcp 1040 ---A--- 0 0.1 4.1 3 6
- 2.010832 1 2 tcp 1040 ---A--- 0 0.1 4.1 3 6
r 2.021664 1 2 tcp 1040 ---A--- 0 0.1 4.1 3 6
+ 2.021664 2 4 tcp 1040 ---A--- 0 0.1 4.1 3 6
- 2.021664 2 4 tcp 1040 ---A--- 0 0.1 4.1 3 6
r 2.042496 2 4 tcp 1040 ---A--- 0 0.1 4.1 3 6
+ 2.042496 4 2 ack 40 ------- 0 4.1 0.1 3 7
- 2.042496 4 2 ack 40 ------- 0 4.1 0.1 3 7
r 2.062528 4 2 ack 40 ------- 0 4.1 0.1 3 7
+ 2.062528 2 1 ack 40 ------- 0 4.1 0.1 3 7
- 2.062528 2 1 ack 40 ------- 0 4.1 0.1 3 7
r 2.07256 2 1 ack 40 ------- 0 4.1 0.1 3 7
+ 2.07256 1 0 ack 40 ------- 0 4.1 0.1 3 7
- 2.07256 1 0 ack 40 ------- 0 4.1 0.1 3 7
r 2.082592 1 0 ack 40 ------- 0 4.1 0.1 3 7
+ 2.5 0 1 tcp 1040 ---A--- 0 0.1 4.1 4 8
- 2.5 0 1 tcp 1040 ---A--- 0 0.1 4.1 4 8
r 2.510832 0 1 tcp 1040 ---A--- 0 0.1 4.1 4 8
+ 2.510832 1 2 tcp 1040 ---A--- 0 0.1 4.1 4 8
- 2.510832 1 2 tcp 1040 ---A--- 0 0.1 4.1 4 8
r 2.521664 1 2 tcp 1040 ---A--- 0 0.1 4.1 4 8
+ 2.521664 2 4 tcp 1040 ---A--- 0 0.1 4.1 4 8
- 2.521664 2 4 tcp 1040 ---A--- 0 0.1 4.1 4 8
r 2.542496 2 4 tcp 1040 ---A--- 0 0.1 4.1 4 8
+ 2.542496 4 2 ack 40 ------- 0 4.1 0.1 4 9
- 2.542496 4 2 ack 40 ------- 0 4.1 0.1 4 9
r 2.562528 4 2 ack 40 ------- 0 4.1 0.1 4 9
+ 2.562528 2 1 ack 40 ------- 0 4.1 0.1 4 9
- 2.562528 2 1 ack 40 ------- 0 4.1 0.1 4 9
r 2.57256 2 1 ack 40 ------- 0 4.1 0.1 4 9
+ 2.57256 1 0 ack 40 ------- 0 4.1 0.1 4 9
- 2.57256 1 0 ack 40 ------- 0 4.1 0.1 4 9
r 2.582592 1 0 ack 40 ------- 0 4.1 0.1 4 9
+ 3 0 1 tcp 1040 ---A--- 0 0.1 4.1 5 10
- 3 0 1 tcp 1040 ---A--- 0 0.1 4.1 5 10
r 3.010832 0 1 tcp 1040 ---A--- 0 0.1 4.1 5 10
+ 3.010832 1 2 tcp 1040 ---A--- 0 0.1 4.1 5 10
- 3.010832 1 2 tcp 1040 ---A--- 0 0.1 4.1 5 10
r 3.021664 1 2 tcp 1040 ---A--- 0 0.1 4.1 5 10
+ 3.021664 2 4 tcp 1040 ---A--- 0 0.1 4.1 5 10
- 3.021664 2 4 tcp 1040 ---A--- 0 0.1 4.1 5 10
r 3.042496 2 4 tcp 1040 ---A--- 0 0.1 4.1 5 10
+ 3.042496 4 2 ack 40 ------- 0 4.1 0.1 5 11
- 3.042496 4 2 ack 40 ------- 0 4.1 0.1 5 11
r 3.062528 4 2 ack 40 ------- 0 4.1 0.1 5 11
+ 3.062528 2 1 ack 40 ------- 0 4.1 0.1 5 11
- 3.062528 2 1 ack 40 ------- 0 4.1 0.1 5 11
r 3.07256 2 1 ack 40 ------- 0 4.1 0.1 5 11
+ 3.07256 1 0 ack 40 ------- 0 4.1 0.1 5 11
- 3.07256 1 0 ack 40 ------- 0 4.1 0.1 5 11
r 3.082592 1 0 ack 40 ------- 0 4.1 0.1 5 11
+ 3.5 0 1 tcp 1040 ---A--- 0 0.1 4.1 6 12
- 3.5 0 1 tcp 1040 ---A--- 0 0.1 4.1 6 12
r 3.510832 0 1 tcp 1040 ---A--- 0 0.1 4.1 6 12
+ 3.510832 1 2 tcp 1040 ---A--- 0 0.1 4.1 6 12
- 3.510832 1 2 tcp 1040 ---A--- 0 0.1 4.1 6 12
r 3.521664 1 2 tcp 1040 ---A--- 0 0.1 4.1 6 12
+ 3.521664 2 4 tcp 1040 ---A--- 0 0.1 4.1 6 12
- 3.521664 2 4 tcp 1040 ---A--- 0 0.1 4.1 6 12
r 3.542496 2 4 tcp 1040 ---A--- 0 0.1 4.1 6 12
+ 3.542496 4 2 ack 40 ------- 0 4.1 0.1 6 13
- 3.542496 4 2 ack 40 ------- 0 4.1 0.1 6 13
r 3.562528 4 2 ack 40 ------- 0 4.1 0.1 6 13
+ 3.562528 2 1 ack 40 ------- 0 4.1 0.1 6 13
- 3.562528 2 1 ack 40 ------- 0 4.1 0.1 6 13
r 3.57256 2 1 ack 40 ------- 0 4.1 0.1 6 13
+ 3.57256 1 0 ack 40 ------- 0 4.1 0.1 6 13
- 3.57256 1 0 ack 40 ------- 0 4.1 0.1 6 13
r 3.582592 1 0 ack 40 ------- 0 4.1 0.1 6 13
+ 4 0 1 tcp 1040 ---A--- 0 0.1 4.1 7 14
- 4 0 1 tcp 1040 ---A--- 0 0.1 4.1 7 14
r 4.010832 0 1 tcp 1040 ---A--- 0 0.1 4.1 7 14
+ 4.010832 1 2 tcp 1040 ---A--- 0 0.1 4.1 7 14
- 4.010832 1 2 tcp 1040 ---A--- 0 0.1 4.1 7 14
r 4.021664 1 2 tcp 1040 ---A--- 0 0.1 4.1 7 14
+ 4.021664 2 4 tcp 1040 ---A--- 0 0.1 4.1 7 14
- 4.021664 2 4 tcp 1040 ---A--- 0 0.1 4.1 7 14
r 4.042496 2 4 tcp 1040 ---A--- 0 0.1 4.1 7 14
+ 4.042496 4 2 ack 40 ------- 0 4.1 0.1 7 15
- 4.042496 4 2 ack 40 ------- 0 4.1 0.1 7 15
r 4.062528 4 2 ack 40 ------- 0 4.1 0.1 7 15
+ 4.062528 2 1 ack 40 ------- 0 4.1 0.1 7 15
- 4.062528 2 1 ack 40 ------- 0 4.1 0.1 7 15
r 4.07256 2 1 ack 40 ------- 0 4.1 0.1 7 15
+ 4.07256 1 0 ack 40 ------- 0 4.1 0.1 7 15
- 4.07256 1 0 ack 40 ------- 0 4.1 0.1 7 15
r 4.082592 1 0 ack 40 ------- 0 4.1 0.1 7 15
+ 4.5 0 1 tcp 1040 ---A--- 0 0.1 4.1 8 16
- 4.5 0 1 tcp 1040 ---A--- 0 0.1 4.1 8 16
r 4.510832 0 1 tcp 1040 ---A--- 0 0.1 4.1 8 16
+ 4.510832 1 2 tcp 1040 ---A--- 0 0.1 4.1 8 16
- 4.510832 1 2 tcp 1040 ---A--- 0 0.1 4.1 8 16
r 4.521664 1 2 tcp 1040 ---A--- 0 0.1 4.1 8 16
+ 4.521664 2 4 tcp 1040 ---A--- 0 0.1 4.1 8 16
- 4.521664 2 4 tcp 1040 ---A--- 0 0.1 4.1 8 16
r 4.542496 2 4 tcp 1040 ---A--- 0 0.1 4.1 8 16
+ 4.542496 4 2 ack 40 ------- 0 4.1 0.1 8 17
- 4.542496 4 2 ack 40 ------- 0 4.1 0.1 8 17
r 4.562528 4 2 ack 40 ------- 0 4.1 0.1 8 17
+ 4.562528 2 1 ack 40 ------- 0 4.1 0.1 8 17
- 4.562528 2 1 ack 40 ------- 0 4.1 0.1 8 17
r 4.57256 2 1 ack 40 ------- 0 4.1 0.1 8 17
+ 4.57256 1 0 ack 40 ------- 0 4.1 0.1 8 17
- 4.57256 1 0 ack 40 ------- 0 4.1 0.1 8 17
r 4.582592 1 0 ack 40 ------- 0 4.1 0.1 8 17
+ 5 0 1 tcp 1040 ---A--- 0 0.1 4.1 9 18
- 5 0 1 tcp 1040 ---A--- 0 0.1 4.1 9 18
r 5.010832 0 1 tcp 1040 ---A--- 0 0.1 4.1 9 18
+ 5.010832 1 2 tcp 1040 ---A--- 0 0.1 4.1 9 18
- 5.010832 1 2 tcp 1040 ---A--- 0 0.1 4.1 9 18
r 5.021664 1 2 tcp 1040 ---A--- 0 0.1 4.1 9 18
+ 5.021664 2 4 tcp 1040 ---A--- 0 0.1 4.1 9 18
- 5.021664 2 4 tcp 1040 ---A--- 0 0.1 4.1 9 18
r 5.042496 2 4 tcp 1040 ---A--- 0 0.1 4.1 9 18
+ 5.042496 4 2 ack 40 ------- 0 4.1 0.1 9 19
- 5.042496 4 2 ack 40 ------- 0 4.1 0.1 9 19
r 5.062528 4 2 ack 40 ------- 0 4.1 0.1 9 19
+ 5.062528 2 1 ack 40 ------- 0 4.1 0.1 9 19
- 5.062528 2 1 ack 40 ------- 0 4.1 0.1 9 19
r 5.07256 2 1 ack 40 ------- 0 4.1 0.1 9 19
+ 5.07256 1 0 ack 40 ------- 0 4.1 0.1 9 19
- 5.07256 1 0 ack 40 ------- 0 4.1 0.1 9 19
r 5.082592 1 0 ack 40 ------- 0 4.1 0.1 9 19
+ 5.5 0 1 tcp 1040 ---A--- 0 0.1 4.1 10 20
- 5.5 0 1 tcp 1040 ---A--- 0 0.1 4.1 10 20
r 5.510832 0 1 tcp 1040 ---A--- 0 0.1 4.1 10 20
+ 5.510832 1 2 tcp 1040 ---A--- 0 0.1 4.1 10 20
- 5.510832 1 2 tcp 1040 ---A--- 0 0.1 4.1 10 20
r 5.521664 1 2 tcp 1040 ---A--- 0 0.1 4.1 10 20
+ 5.521664 2 4 tcp 1040 ---A--- 0 0.1 4.1 10 20
- 5.521664 2 4 tcp 1040 ---A--- 0 0.1 4.1 10 20
r 5.542496 2 4 tcp 1040 ---A--- 0 0.1 4.1 10 20
+ 5.542496 4 2 ack 40 ------- 0 4.1 0.1 10 21
- 5.542496 4 2 ack 40 ------- 0 4.1 0.1 10 21
r 5.562528 4 2 ack 40 ------- 0 4.1 0.1 10 21
+ 5.562528 2 1 ack 40 ------- 0 4.1 0.1 10 21
- 5.562528 2 1 ack 40 ------- 0 4.1 0.1 10 21
r 5.57256 2 1 ack 40 ------- 0 4.1 0.1 10 21
+ 5.57256 1 0 ack 40 ------- 0 4.1 0.1 10 21
- 5.57256 1 0 ack 40 ------- 0 4.1 0.1 10 21
r 5.582592 1 0 ack 40 ------- 0 4.1 0.1 10 21
+ 6 0 1 tcp 1040 ---A--- 0 0.1 4.1 11 22
- 6 0 1 tcp 1040 ---A--- 0 0.1 4.1 11 22
r 6.010832 0 1 tcp 1040 ---A--- 0 0.1 4.1 11 22
+ 6.010832 1 2 tcp 1040 ---A--- 0 0.1 4.1 11 22
- 6.010832 1 2 tcp 1040 ---A--- 0 0.1 4.1 11 22
r 6.021664 1 2 tcp 1040 ---A--- 0 0.1 4.1 11 22
+ 6.021664 2 4 tcp 1040 ---A--- 0 0.1 4.1 11 22
- 6.021664 2 4 tcp 1040 ---A--- 0 0.1 4.1 11 22
r 6.042496 2 4 tcp 1040 ---A--- 0 0.1 4.1 11 22
+ 6.042496 4 2 ack 40 ------- 0 4.1 0.1 11 23
- 6.042496 4 2 ack 40 ------- 0 4.1 0.1 11 23
r 6.062528 4 2 ack 40 ------- 0 4.1 0.1 11 23
+ 6.062528 2 1 ack 40 ------- 0 4.1 0.1 11 23
- 6.062528 2 1 ack 40 ------- 0 4.1 0.1 11 23
r 6.07256 2 1 ack 40 ------- 0 4.1 0.1 11 23
+ 6.07256 1 0 ack 40 ------- 0 4.1 0.1 11 23
- 6.07256 1 0 ack 40 ------- 0 4.1 0.1 11 23
r 6.082592 1 0 ack 40 ------- 0 4.1 0.1 11 23
+ 6.5 0 1 tcp 1040 ---A--- 0 0.1 4.1 12 24
- 6.5 0 1 tcp 1040 ---A--- 0 0.1 4.1 12 24
r 6.510832 0 1 tcp 1040 ---A--- 0 0.1 4.1 12 24
+ 6.510832 1 2 tcp 1040 ---A--- 0 0.1 4.1 12 24
- 6.510832 1 2 tcp 1040 ---A--- 0 0.1 4.1 12 24
r 6.521664 1 2 tcp 1040 ---A--- 0 0.1 4.1 12 24
+ 6.521664 2 4 tcp 1040 ---A--- 0 0.1 4.1 12 24
- 6.521664 2 4 tcp 1040 ---A--- 0 0.1 4.1 12 24
r 6.542496 2 4 tcp 1040 ---A--- 0 0.1 4.1 12 24
+ 6.542496 4 2 ack 40 ------- 0 4.1 0.1 12 25
- 6.542496 4 2 ack 40 ------- 0 4.1 0.1 12 25
r 6.562528 4 2 ack 40 ------- 0 4.1 0.1 12 25
+ 6.562528 2 1 ack 40 ------- 0 4.1 0.1 12 25
- 6.562528 2 1 ack 40 ------- 0 4.1 0.1 12 25
r 6.57256 2 1 ack 40 ------- 0 4.1 0.1 12 25
+ 6.57256 1 0 ack 40 ------- 0 4.1 0.1 12 25
- 6.57256 1 0 ack 40 ------- 0 4.1 0.1 12 25
r 6.582592 1 0 ack 40 ------- 0 4.1 0.1 12 25
+ 7 0 1 tcp 1040 ---A--- 0 0.1 4.1 13 26
- 7 0 1 tcp 1040 ---A--- 0 0.1 4.1 13 26
r 7.010832 0 1 tcp 1040 ---A--- 0 0.1 4.1 13 26
+ 7.010832 1 2 tcp 1040 ---A--- 0 0.1 4.1 13 26
- 7.010832 1 2 tcp 1040 ---A--- 0 0.1 4.1 13 26
r 7.021664 1 2 tcp 1040 ---A--- 0 0.1 4.1 13 26
+ 7.021664 2 4 tcp 1040 ---A--- 0 0.1 4.1 13 26
- 7.021664 2 4 tcp 1040 ---A--- 0 0.1 4.1 13 26
r 7.042496 2 4 tcp 1040 ---A--- 0 0.1 4.1 13 26
+ 7.042496 4 2 ack 40 ------- 0 4.1 0.1 13 27
- 7.042496 4 2 ack 40 ------- 0 4.1 0.1 13 27
r 7.062528 4 2 ack 40 ------- 0 4.1 0.1 13 27
+ 7.062528 2 1 ack 40 ------- 0 4.1 0.1 13 27
- 7.062528 2 1 ack 40 ------- 0 4.1 0.1 13 27
r 7.07256 2 1 ack 40 ------- 0 4.1 0.1 13 27
+ 7.07256 1 0 ack 40 ------- 0 4.1 0.1 13 27
- 7.07256 1 0 ack 40 ------- 0 4.1 0.1 13 27
r 7.082592 1 0 ack 40 ------- 0 4.1 0.1 13 27
+ 7.5 0 1 tcp 1040 ---A--- 0 0.1 4.1 14 28
- 7.5 0 1 tcp 1040 ---A--- 0 0.1 4.1 14 28
r 7.510832 0 1 tcp 1040 ---A--- 0 0.1 4.1 14 28
+ 7.510832 1 2 tcp 1040 ---A--- 0 0.1 4.1 14 28
- 7.510832 1 2 tcp 1040 ---A--- 0 0.1 4.1 14 28
r 7.521664 1 2 tcp 1040 ---A--- 0 0.1 4.1 14 28
+ 7.521664 2 4 tcp 1040 ---A--- 0 0.1 4.1 14 28
- 7.521664 2 4 tcp 1040 ---A--- 0 0.1 4.1 14 28
r 7.542496 2 4 tcp 1040 ---A--- 0 0.1 4.1 14 28
+ 7.542496 4 2 ack 40 ------- 0 4.1 0.1 14 29
- 7.542496 4 2 ack 40 ------- 0 4.1 0.1 14 29
r 7.562528 4 2 ack 40 ------- 0 4.1 0.1 14 29
+ 7.562528 2 1 ack 40 ------- 0 4.1 0.1 14 29
- 7.562528 2 1 ack 40 ------- 0 4.1 0.1 14 29
r 7.57256 2 1 ack 40 ------- 0 4.1 0.1 14 29
+ 7.57256 1 0 ack 40 ------- 0 4.1 0.1 14 29
- 7.57256 1 0 ack 40 ------- 0 4.1 0.1 14 29
r 7.582592 1 0 ack 40 ------- 0 4.1 0.1 14 29
+ 8 0 1 tcp 1040 ---A--- 0 0.1 4.1 15 30
- 8 0 1 tcp 1040 ---A--- 0 0.1 4.1 15 30
r 8.010832 0 1 tcp 1040 ---A--- 0 0.1 4.1 15 30
+ 8.010832 1 2 tcp 1040 ---A--- 0 0.1 4.1 15 30
- 8.010832 1 2 tcp 1040 ---A--- 0 0.1 4.1 15 30
r 8.021664 1 2 tcp 1040 ---A--- 0 0.1 4.1 15 30
+ 8.021664 2 4 tcp 1040 ---A--- 0 0.1 4.1 15 30
- 8.021664 2 4 tcp 1040 ---A--- 0 0.1 4.1 15 30
r 8.042496 2 4 tcp 1040 ---A--- 0 0.1 4.1 15 30
+ 8.042496 4 2 ack 40 ------- 0 4.1 0.1 15 31
- 8.042496 4 2 ack 40 ------- 0 4.1 0.1 15 31
r 8.062528 4 2 ack 40 ------- 0 4.1 0.1 15 31
+ 8.062528 2 1 ack 40 ------- 0 4.1 0.1 15 31
- 8.062528 2 1 ack 40 ------- 0 4.1 0.1 15 31
r 8.07256 2 1 ack 40 ------- 0 4.1 0.1 15 31
+ 8.07256 1 0 ack 40 ------- 0 4.1 0.1 15 31
- 8.07256 1 0 ack 40 ------- 0 4.1 0.1 15 31
r 8.082592 1 0 ack 40 ------- 0 4.1 0.1 15 31
+ 8.5 0 1 tcp 1040 ---A--- 0 0.1 4.1 16 32
- 8.5 0 1 tcp 1040 ---A--- 0 0.1 4.1 16 32
r 8.510832 0 1 tcp 1040 ---A--- 0 0.1 4.1 16 32
+ 8.510832 1 2 tcp 1040 ---A--- 0 0.1 4.1 16 32
- 8.510832 1 2 tcp 1040 ---A--- 0 0.1 4.1 16 32
r 8.521664 1 2 tcp 1040 ---A--- 0 0.1 4.1 16 32
+ 8.521664 2 4 tcp 1040 ---A--- 0 0.1 4.1 16 32
- 8.521664 2 4 tcp 1040 ---A--- 0 0.1 4.1 16 32
r 8.542496 2 4 tcp 1040 ---A--- 0 0.1 4.1 16 32
+ 8.542496 4 2 ack 40 ------- 0 4.1 0.1 16 33
- 8.542496 4 2 ack 40 ------- 0 4.1 0.1 16 33
r 8.562528 4 2 ack 40 ------- 0 4.1 0.1 16 33
+ 8.562528 2 1 ack 40 ------- 0 4.1 0.1 16 33
- 8.562528 2 1 ack 40 ------- 0 4.1 0.1 16 33
r 8.57256 2 1 ack 40 ------- 0 4.1 0.1 16 33
+ 8.57256 1 0 ack 40 ------- 0 4.1 0.1 16 33
- 8.57256 1 0 ack 40 ------- 0 4.1 0.1 16 33
r 8.582592 1 0 ack 40 ------- 0 4.1 0.1 16 33
+ 9 0 1 tcp 1040 ---A--- 0 0.1 4.1 17 34
- 9 0 1 tcp 1040 ---A--- 0 0.1 4.1 17 34
r 9.010832 0 1 tcp 1040 ---A--- 0 0.1 4.1 17 34
+ 9.010832 1 2 tcp 1040 ---A--- 0 0.1 4.1 17 34
- 9.010832 1 2 tcp 1040 ---A--- 0 0.1 4.1 17 34
r 9.021664 1 2 tcp 1040 ---A--- 0 0.1 4.1 17 34
+ 9.021664 2 4 tcp 1040 ---A--- 0 0.1 4.1 17 34
- 9.021664 2 4 tcp 1040 ---A--- 0 0.1 4.1 17 34
r 9.042496 2 4 tcp 1040 ---A--- 0 0.1 4.1 17 34
+ 9.042496 4 2 ack 40 ------- 0 4.1 0.1 17 35
- 9.042496 4 2 ack 40 ------- 0 4.1 0.1 17 35
r 9.062528 4 2 ack 40 ------- 0 4.1 0.1 17 35
+ 9.062528 2 1 ack 40 ------- 0 4.1 0.1 17 35
- 9.062528 2 1 ack 40 ------- 0 4.1 0.1 17 35
r 9.07256 2 1 ack 40 ------- 0 4.1 0.1 17 35
+ 9.07256 1 0 ack 40 ------- 0 4.1 0.1 17 35
- 9.07256 1 0 ack 40 ------- 0 4.1 0.1 17 35
r 9.082592 1 0 ack 40 ------- 0 4.1 0.1 17 35
+ 9.5 0 1 tcp 1040 ---A--- 0 0.1 4.1 18 36
- 9.5 0 1 tcp 1040 ---A--- 0 0.1 4.1 18 36
r 9.510832 0 1 tcp 1040 ---A--- 0 0.1 4.1 18 36
+ 9.510832 1 2 tcp 1040 ---A--- 0 0.1 4.1 18 36
- 9.510832 1 2 tcp 1040 ---A--- 0 0.1 4.1 18 36
r 9.521664 1 2 tcp 1040 ---A--- 0 0.1 4.1 18 36
+ 9.521664 2 4 tcp 1040 ---A--- 0 0.1 4.1 18 36
- 9.521664 2 4 tcp 1040 ---A--- 0 0.1 4.1 18 36
r 9.542496 2 4 tcp 1040 ---A--- 0 0.1 4.1 18 36
+ 9.542496 4 2 ack 40 ------- 0 4.1 0.1 18 37
- 9.542496 4 2 ack 40 ------- 0 4.1 0.1 18 37
r 9.562528 4 2 ack 40 ------- 0 4.1 0.1 18 37
+ 9.562528 2 1 ack 40 ------- 0 4.1 0.1 18 37
- 9.562528 2 1 ack 40 ------- 0 4.1 0.1 18 37
r 9.57256 2 1 ack 40 ------- 0 4.1 0.1 18 37
+ 9.57256 1 0 ack 40 ------- 0 4.1 0.1 18 37
- 9.57256 1 0 ack 40 ------- 0 4.1 0.1 18 37
r 9.582592 1 0 ack 40 ------- 0 4.1 0.1 18 37
+ 10 0 1 tcp 1040 ---A--- 0 0.1 4.1 19 38
- 10 0 1 tcp 1040 ---A--- 0 0.1 4.1 19 38
r 10.010832 0 1 tcp 1040 ---A--- 0 0.1 4.1 19 38
+ 10.010832 1 2 tcp 1040 ---A--- 0 0.1 4.1 19 38
- 10.010832 1 2 tcp 1040 ---A--- 0 0.1 4.1 19 38
r 10.021664 1 2 tcp 1040 ---A--- 0 0.1 4.1 19 38
+ 10.021664 2 4 tcp 1040 ---A--- 0 0.1 4.1 19 38
- 10.021664 2 4 tcp 1040 ---A--- 0 0.1 4.1 19 38
r 10.042496 2 4 tcp 1040 ---A--- 0 0.1 4.1 19 38
+ 10.042496 4 2 ack 40 ------- 0 4.1 0.1 19 39
- 10.042496 4 2 ack 40 ------- 0 4.1 0.1 19 39
r 10.062528 4 2 ack 40 ------- 0 4.1 0.1 19 39
+ 10.062528 2 1 ack 40 ------- 0 4.1 0.1 19 39
- 10.062528 2 1 ack 40 ------- 0 4.1 0.1 19 39
r 10.07256 2 1 ack 40 ------- 0 4.1 0.1 19 39
+ 10.07256 1 0 ack 40 ------- 0 4.1 0.1 19 39
- 10.07256 1 0 ack 40 ------- 0 4.1 0.1 19 39
r 10.082592 1 0 ack 40 ------- 0 4.1 0.1 19 39
+ 10.5 0 1 tcp 1040 ---A--- 0 0.1 4.1 20 40
- 10.5 0 1 tcp 1040 ---A--- 0 0.1 4.1 20 40
r 10.510832 0 1 tcp 1040 ---A--- 0 0.1 4.1 20 40
+ 10.510832 1 2 tcp 1040 ---A--- 0 0.1 4.1 20 40
- 10.510832 1 2 tcp 1040 ---A--- 0 0.1 4.1 20 40
r 10.521664 1 2 tcp 1040 ---A--- 0 0.1 4.1 20 40
+ 10.521664 2 4 tcp 1040 ---A--- 0 0.1 4.1 20 40
- 10.521664 2 4 tcp 1040 ---A--- 0 0.1 4.1 20 40
r 10.542496 2 4 tcp 1040 ---A--- 0 0.1 4.1 20 40
+ 10.542496 4 2 ack 40 ------- 0 4.1 0.1 20 41
- 10.542496 4 2 ack 40 ------- 0 4.1 0.1 20 41
r 10.562528 4 2 ack 40 ------- 0 4.1 0.1 20 41
+ 10.562528 2 1 ack 40 ------- 0 4.1 0.1 20 41
- 10.562528 2 1 ack 40 ------- 0 4.1 0.1 20 41
r 10.57256 2 1 ack 40 ------- 0 4.1 0.1 20 41
+ 10.57256 1 0 ack 40 ------- 0 4.1 0.1 20 41
- 10.57256 1 0 ack 40 ------- 0 4.1 0.1 20 41
r 10.582592 1 0 ack 40 ------- 0 4.1 0.1 20 41
+ 11 0 1 tcp 1040 ---A--- 0 0.1 4.1 21 42
- 11 0 1 tcp 1040 ---A--- 0 0.1 4.1 21 42
r 11.010832 0 1 tcp 1040 ---A--- 0 0.1 4.1 21 42
+ 11.010832 1 2 tcp 1040 ---A--- 0 0.1 4.1 21 42
- 11.010832 1 2 tcp 1040 ---A--- 0 0.1 4.1 21 42
r 11.021664 1 2 tcp 1040 ---A--- 0 0.1 4.1 21 42
+ 11.021664 2 4 tcp 1040 ---A--- 0 0.1 4.1 21 42
- 11.021664 2 4 tcp 1040 ---A--- 0 0.1 4.1 21 42
r 11.042496 2 4 tcp 1040 ---A--- 0 0.1 4.1 21 42
+ 11.042496 4 2 ack 40 ------- 0 4.1 0.1 21 43
- 11.042496 4 2 ack 40 ------- 0 4.1 0.1 21 43
r 11.062528 4 2 ack 40 ------- 0 4.1 0.1 21 43
+ 11.062528 2 1 ack 40 ------- 0 4.1 0.1 21 43
- 11.062528 2 1 ack 40 ------- 0 4.1 0.1 21 43
r 11.07256 2 1 ack 40 ------- 0 4.1 0.1 21 43
+ 11.07256 1 0 ack 40 ------- 0 4.1 0.1 21 43
- 11.07256 1 0 ack 40 ------- 0 4.1 0.1 21 43
r 11.082592 1 0 ack 40 ------- 0 4.1 0.1 21 43
+ 11.5 0 1 tcp 1040 ---A--- 0 0.1 4.1 22 44
- 11.5 0 1 tcp 1040 ---A--- 0 0.1 4.1 22 44
r 11.510832 0 1 tcp 1040 ---A--- 0 0.1 4.1 22 44
+ 11.510832 1 2 tcp 1040 ---A--- 0 0.1 4.1 22 44
- 11.510832 1 2 tcp 1040 ---A--- 0 0.1 4.1 22 44
r 11.521664 1 2 tcp 1040 ---A--- 0 0.1 4.1 22 44
+ 11.521664 2 4 tcp 1040 ---A--- 0 0.1 4.1 22 44
- 11.521664 2 4 tcp 1040 ---A--- 0 0.1 4.1 22 44
r 11.542496 2 4 tcp 1040 ---A--- 0 0.1 4.1 22 44
+ 11.542496 4 2 ack 40 ------- 0 4.1 0.1 22 45
- 11.542496 4 2 ack 40 ------- 0 4.1 0.1 22 45
r 11.562528 4 2 ack 40 ------- 0 4.1 0.1 22 45
+ 11.562528 2 1 ack 40 ------- 0 4.1 0.1 22 45
- 11.562528 2 1 ack 40 ------- 0 4.1 0.1 22 45
r 11.57256 2 1 ack 40 ------- 0 4.1 0.1 22 45
+ 11.57256 1 0 ack 40 ------- 0 4.1 0.1 22 45
- 11.57256 1 0 ack 40 ------- 0 4.1 0.1 22 45
r 11.582592 1 0 ack 40 ------- 0 4.1 0.1 22 45
+ 12 0 1 tcp 1040 ---A--- 0 0.1 4.1 23 46
- 12 0 1 tcp 1040 ---A--- 0 0.1 4.1 23 46
r 12.010832 0 1 tcp 1040 ---A--- 0 0.1 4.1 23 46
+ 12.010832 1 2 tcp 1040 ---A--- 0 0.1 4.1 23 46
- 12.010832 1 2 tcp 1040 ---A--- 0 0.1 4.1 23 46
r 12.021664 1 2 tcp 1040 ---A--- 0 0.1 4.1 23 46
+ 12.021664 2 4 tcp 1040 ---A--- 0 0.1 4.1 23 46
- 12.021664 2 4 tcp 1040 ---A--- 0 0.1 4.1 23 46
r 12.042496 2 4 tcp 1040 ---A--- 0 0.1 4.1 23 46
+ 12.042496 4 2 ack 40 ------- 0 4.1 0.1 23 47
- 12.042496 4 2 ack 40 ------- 0 4.1 0.1 23 47
r 12.062528 4 2 ack 40 ------- 0 4.1 0.1 23 47
+ 12.062528 2 1 ack 40 ------- 0 4.1 0.1 23 47
- 12.062528 2 1 ack 40 ------- 0 4.1 0.1 23 47
r 12.07256 2 1 ack 40 ------- 0 4.1 0.1 23 47
+ 12.07256 1 0 ack 40 ------- 0 4.1 0.1 23 47
- 12.07256 1 0 ack 40 ------- 0 4.1 0.1 23 47
r 12.082592 1 0 ack 40 ------- 0 4.1 0.1 23 47
+ 12.5 0 1 tcp 1040 ---A--- 0 0.1 4.1 24 48
- 12.5 0 1 tcp 1040 ---A--- 0 0.1 4.1 24 48
r 12.510832 0 1 tcp 1040 ---A--- 0 0.1 4.1 24 48
+ 12.510832 1 2 tcp 1040 ---A--- 0 0.1 4.1 24 48
- 12.510832 1 2 tcp 1040 ---A--- 0 0.1 4.1 24 48
r 12.521664 1 2 tcp 1040 ---A--- 0 0.1 4.1 24 48
+ 12.521664 2 4 tcp 1040 ---A--- 0 0.1 4.1 24 48
- 12.521664 2 4 tcp 1040 ---A--- 0 0.1 4.1 24 48
r 12.542496 2 4 tcp 1040 ---A--- 0 0.1 4.1 24 48
+ 12.542496 4 2 ack 40 ------- 0 4.1 0.1 24 49
- 12.542496 4 2 ack 40 ------- 0 4.1 0.1 24 49
r 12.562528 4 2 ack 40 ------- 0 4.1 0.1 24 49
+ 12.562528 2 1 ack 40 ------- 0 4.1 0.1 24 49
- 12.562528 2 1 ack 40 ------- 0 4.1 0.1 24 49
r 12.57256 2 1 ack 40 ------- 0 4.1 0.1 24 49
+ 12.57256 1 0 ack 40 ------- 0 4.1 0.1 24 49
- 12.57256 1 0 ack 40 ------- 0 4.1 0.1 24 49
r 12.582592 1 0 ack 40 ------- 0 4.1 0.1 24 49
+ 13 0 1 tcp 1040 ---A--- 0 0.1 4.1 25 50
- 13 0 1 tcp 1040 ---A--- 0 0.1 4.1 25 50
r 13.010832 0 1 tcp 1040 ---A--- 0 0.1 4.1 25 50
+ 13.010832 1 2 tcp 1040 ---A--- 0 0.1 4.1 25 50
- 13.010832 1 2 tcp 1040 ---A--- 0 0.1 4.1 25 50
r 13.021664 1 2 tcp 1040 ---A--- 0 0.1 4.1 25 50
+ 13.021664 2 4 tcp 1040 ---A--- 0 0.1 4.1 25 50
- 13.021664 2 4 tcp 1040 ---A--- 0 0.1 4.1 25 50
r 13.042496 2 4 tcp 1040 ---A--- 0 0.1 4.1 25 50
+ 13.042496 4 2 ack 40 ------- 0 4.1 0.1 25 51
- 13.042496 4 2 ack 40 ------- 0 4.1 0.1 25 51
r 13.062528 4 2 ack 40 ------- 0 4.1 0.1 25 51
+ 13.062528 2 1 ack 40 ------- 0 4.1 0.1 25 51
- 13.062528 2 1 ack 40 ------- 0 4.1 0.1 25 51
r 13.07256 2 1 ack 40 ------- 0 4.1 0.1 25 51
+ 13.07256 1 0 ack 40 ------- 0 4.1 0.1 25 51
- 13.07256 1 0 ack 40 ------- 0 4.1 0.1 25 51
r 13.082592 1 0 ack 40 ------- 0 4.1 0.1 25 51
+ 13.5 0 1 tcp 1040 ---A--- 0 0.1 4.1 26 52
- 13.5 0 1 tcp 1040 ---A--- 0 0.1 4.1 26 52
r 13.510832 0 1 tcp 1040 ---A--- 0 0.1 4.1 26 52
+ 13.510832 1 2 tcp 1040 ---A--- 0 0.1 4.1 26 52
- 13.510832 1 2 tcp 1040 ---A--- 0 0.1 4.1 26 52
r 13.521664 1 2 tcp 1040 ---A--- 0 0.1 4.1 26 52
+ 13.521664 2 4 tcp 1040 ---A--- 0 0.1 4.1 26 52
- 13.521664 2 4 tcp 1040 ---A--- 0 0.1 4.1 26 52
r 13.542496 2 4 tcp 1040 ---A--- 0 0.1 4.1 26 52
+ 13.542496 4 2 ack 40 ------- 0 4.1 0.1 26 53
- 13.542496 4 2 ack 40 ------- 0 4.1 0.1 26 53
r 13.562528 4 2 ack 40 ------- 0 4.1 0.1 26 53
+ 13.562528 2 1 ack 40 ------- 0 4.1 0.1 26 53
- 13.562528 2 1 ack 40 ------- 0 4.1 0.1 26 53
r 13.57256 2 1 ack 40 ------- 0 4.1 0.1 26 53
+ 13.57256 1 0 ack 40 ------- 0 4.1 0.1 26 53
- 13.57256 1 0 ack 40 ------- 0 4.1 0.1 26 53
r 13.582592 1 0 ack 40 ------- 0 4.1 0.1 26 53
+ 14 0 1 tcp 1040 ---A--- 0 0.1 4.1 27 54
- 14 0 1 tcp 1040 ---A--- 0 0.1 4.1 27 54
r 14.010832 0 1 tcp 1040 ---A--- 0 0.1 4.1 27 54
+ 14.010832 1 2 tcp 1040 ---A--- 0 0.1 4.1 27 54
- 14.010832 1 2 tcp 1040 ---A--- 0 0.1 4.1 27 54
r 14.021664 1 2 tcp 1040 ---A--- 0 0.1 4.1 27 54
+ 14.021664 2 4 tcp 1040 ---A--- 0 0.1 4.1 27 54
- 14.021664 2 4 tcp 1040 ---A--- 0 0.1 4.1 27 54
r 14.042496 2 4 tcp 1040 ---A--- 0 0.1 4.1 27 54
+ 14.042496 4 2 ack 40 ------- 0 4.1 0.1 27 55
- 14.042496 4 2 ack 40 ------- 0 4.1 0.1 27 55
r 14.062528 4 2 ack 40 ------- 0 4.1 0.1 27 55
+ 14.062528 2 1 ack 40 ------- 0 4.1 0.1 27 55
- 14.062528 2 1 ack 40 ------- 0 4.1 0.1 27 55
r 14.07256 2 1 ack 40 ------- 0 4.1 0.1 27 55
+ 14.07256 1 0 ack 40 ------- 0 4.1 0.1 27 55
- 14.07256 1 0 ack 40 ------- 0 4.1 0.1 27 55
r 14.082592 1 0 ack 40 ------- 0 4.1 0.1 27 55
+ 14.5 0 1 tcp 1040 ---A--- 0 0.1 4.1 28 56
- 14.5 0 1 tcp 1040 ---A--- 0 0.1 4.1 28 56
r 14.510832 0 1 tcp 1040 ---A--- 0 0.1 4.1 28 56
+ 14.510832 1 2 tcp 1040 ---A--- 0 0.1 4.1 28 56
- 14.510832 1 2 tcp 1040 ---A--- 0 0.1 4.1 28 56
r 14.521664 1 2 tcp 1040 ---A--- 0 0.1 4.1 28 56
+ 14.521664 2 4 tcp 1040 ---A--- 0 0.1 4.1 28 56
- 14.521664 2 4 tcp 1040 ---A--- 0 0.1 4.1 28 56
r 14.542496 2 4 tcp 1040 ---A--- 0 0.1 4.1 28 56
+ 14.542496 4 2 ack 40 ------- 0 4.1 0.1 28 57
- 14.542496 4 2 ack 40 ------- 0 4.1 0.1 28 57
r 14.562528 4 2 ack 40 ------- 0 4.1 0.1 28 57
+ 14.562528 2 1 ack 40 ------- 0 4.1 0.1 28 57
- 14.562528 2 1 ack 40 ------- 0 4.1 0.1 28 57
r 14.57256 2 1 ack 40 ------- 0 4.1 0.1 28 57
+ 14.57256 1 0 ack 40 ------- 0 4.1 0.1 28 57
- 14.57256 1 0 ack 40 ------- 0 4.1 0.1 28 57
r 14.582592 1 0 ack 40 ------- 0 4.1 0.1 28 57
+ 15 0 1 tcp 1040 ---A--- 0 0.1 4.1 29 58
- 15 0 1 tcp 1040 ---A--- 0 0.1 4.1 29 58
r 15.010832 0 1 tcp 1040 ---A--- 0 0.1 4.1 29 58
+ 15.010832 1 2 tcp 1040 ---A--- 0 0.1 4.1 29 58
- 15.010832 1 2 tcp 1040 ---A--- 0 0.1 4.1 29 58
r 15.021664 1 2 tcp 1040 ---A--- 0 0.1 4.1 29 58
+ 15.021664 2 4 tcp 1040 ---A--- 0 0.1 4.1 29 58
- 15.021664 2 4 tcp 1040 ---A--- 0 0.1 4.1 29 58
r 15.042496 2 4 tcp 1040 ---A--- 0 0.1 4.1 29 58
+ 15.042496 4 2 ack 40 ------- 0 4.1 0.1 29 59
- 15.042496 4 2 ack 40 ------- 0 4.1 0.1 29 59
r 15.062528 4 2 ack 40 ------- 0 4.1 0.1 29 59
+ 15.062528 2 1 ack 40 ------- 0 4.1 0.1 29 59
- 15.062528 2 1 ack 40 ------- 0 4.1 0.1 29 59
r 15.07256 2 1 ack 40 ------- 0 4.1 0.1 29 59
+ 15.07256 1 0 ack 40 ------- 0 4.1 0.1 29 59
- 15.07256 1 0 ack 40 ------- 0 4.1 0.1 29 59
r 15.082592 1 0 ack 40 ------- 0 4.1 0.1 29 59
+ 15.5 0 1 tcp 1040 ---A--- 0 0.1 4.1 30 60
- 15.5 0 1 tcp 1040 ---A--- 0 0.1 4.1 30 60
r 15.510832 0 1 tcp 1040 ---A--- 0 0.1 4.1 30 60
+ 15.510832 1 2 tcp 1040 ---A--- 0 0.1 4.1 30 60
- 15.510832 1 2 tcp 1040 ---A--- 0 0.1 4.1 30 60
r 15.521664 1 2 tcp 1040 ---A--- 0 0.1 4.1 30 60
+ 15.521664 2 4 tcp 1040 ---A--- 0 0.1 4.1 30 60
- 15.521664 2 4 tcp 1040 ---A--- 0 0.1 4.1 30 60
r 15.542496 2 4 tcp 1040 ---A--- 0 0.1 4.1 30 60
+ 15.542496 4 2 ack 40 ------- 0 4.1 0.1 30 61
- 15.542496 4 2 ack 40 ------- 0 4.1 0.1 30 61
r 15.562528 4 2 ack 40 ------- 0 4.1 0.1 30 61
+ 15.562528 2 1 ack 40 ------- 0 4.1 0.1 30 61
- 15.562528 2 1 ack 40 ------- 0 4.1 0.1 30 61
r 15.57256 2 1 ack 40 ------- 0 4.1 0.1 30 61
+ 15.57256 1 0 ack 40 ------- 0 4.1 0.1 30 61
- 15.57256 1 0 ack 40 ------- 0 4.1 0.1 30 61
r 15.582592 1 0 ack 40 ------- 0 4.1 0.1 30 61
+ 16 0 1 tcp 1040 ---A--- 0 0.1 4.1 31 62
- 16 0 1 tcp 1040 ---A--- 0 0.1 4.1 31 62
r 16.010832 0 1 tcp 1040 ---A--- 0 0.1 4.1 31 62
+ 16.010832 1 2 tcp 1040 ---A--- 0 0.1 4.1 31 62
- 16.010832 1 2 tcp 1040 ---A--- 0 0.1 4.1 31 62
r 16.021664 1 2 tcp 1040 ---A--- 0 0.1 4.1 31 62
+ 16.021664 2 4 tcp 1040 ---A--- 0 0.1 4.1 31 62
- 16.021664 2 4 tcp 1040 ---A--- 0 0.1 4.1 31 62
r 16.042496 2 4 tcp 1040 ---A--- 0 0.1 4.1 31 62
+ 16.042496 4 2 ack 40 ------- 0 4.1 0.1 31 63
- 16.042496 4 2 ack 40 ------- 0 4.1 0.1 31 63
r 16.062528 4 2 ack 40 ------- 0 4.1 0.1 31 63
+ 16.062528 2 1 ack 40 ------- 0 4.1 0.1 31 63
- 16.062528 2 1 ack 40 ------- 0 4.1 0.1 31 63
r 16.07256 2 1 ack 40 ------- 0 4.1 0.1 31 63
+ 16.07256 1 0 ack 40 ------- 0 4.1 0.1 31 63
- 16.07256 1 0 ack 40 ------- 0 4.1 0.1 31 63
r 16.082592 1 0 ack 40 ------- 0 4.1 0.1 31 63
+ 16.5 0 1 tcp 1040 ---A--- 0 0.1 4.1 32 64
- 16.5 0 1 tcp 1040 ---A--- 0 0.1 4.1 32 64
r 16.510832 0 1 tcp 1040 ---A--- 0 0.1 4.1 32 64
+ 16.510832 1 2 tcp 1040 ---A--- 0 0.1 4.1 32 64
- 16.510832 1 2 tcp 1040 ---A--- 0 0.1 4.1 32 64
r 16.521664 1 2 tcp 1040 ---A--- 0 0.1 4.1 32 64
+ 16.521664 2 4 tcp 1040 ---A--- 0 0.1 4.1 32 64
- 16.521664 2 4 tcp 1040 ---A--- 0 0.1 4.1 32 64
r 16.542496 2 4 tcp 1040 ---A--- 0 0.1 4.1 32 64
+ 16.542496 4 2 ack 40 ------- 0 4.1 0.1 32 65
- 16.542496 4 2 ack 40 ------- 0 4.1 0.1 32 65
r 16.562528 4 2 ack 40 ------- 0 4.1 0.1 32 65
+ 16.562528 2 1 ack 40 ------- 0 4.1 0.1 32 65
- 16.562528 2 1 ack 40 ------- 0 4.1 0.1 32 65
r 16.57256 2 1 ack 40 ------- 0 4.1 0.1 32 65
+ 16.57256 1 0 ack 40 ------- 0 4.1 0.1 32 65
- 16.57256 1 0 ack 40 ------- 0 4.1 0.1 32 65
r 16.582592 1 0 ack 40 ------- 0 4.1 0.1 32 65
+ 17 0 1 tcp 1040 ---A--- 0 0.1 4.1 33 66
- 17 0 1 tcp 1040 ---A--- 0 0.1 4.1 33 66
r 17.010832 0 1 tcp 1040 ---A--- 0 0.1 4.1 33 66
+ 17.010832 1 2 tcp 1040 ---A--- 0 0.1 4.1 33 66
- 17.010832 1 2 tcp 1040 ---A--- 0 0.1 4.1 33 66
r 17.021664 1 2 tcp 1040 ---A--- 0 0.1 4.1 33 66
+ 17.021664 2 4 tcp 1040 ---A--- 0 0.1 4.1 33 66
- 17.021664 2 4 tcp 1040 ---A--- 0 0.1 4.1 33 66
r 17.042496 2 4 tcp 1040 ---A--- 0 0.1 4.1 33 66
+ 17.042496 4 2 ack 40 ------- 0 4.1 0.1 33 67
- 17.042496 4 2 ack 40 ------- 0 4.1 0.1 33 67
r 17.062528 4 2 ack 40 ------- 0 4.1 0.1 33 67
+ 17.062528 2 1 ack 40 ------- 0 4.1 0.1 33 67
- 17.062528 2 1 ack 40 ------- 0 4.1 0.1 33 67
r 17.07256 2 1 ack 40 ------- 0 4.1 0.1 33 67
+ 17.07256 1 0 ack 40 ------- 0 4.1 0.1 33 67
- 17.07256 1 0 ack 40 ------- 0 4.1 0.1 33 67
r 17.082592 1 0 ack 40 ------- 0 4.1 0.1 33 67
+ 17.5 0 1 tcp 1040 ---A--- 0 0.1 4.1 34 68
- 17.5 0 1 tcp 1040 ---A--- 0 0.1 4.1 34 68
r 17.510832 0 1 tcp 1040 ---A--- 0 0.1 4.1 34 68
+ 17.510832 1 2 tcp 1040 ---A--- 0 0.1 4.1 34 68
- 17.510832 1 2 tcp 1040 ---A--- 0 0.1 4.1 34 68
r 17.521664 1 2 tcp 1040 ---A--- 0 0.1 4.1 34 68
+ 17.521664 2 4 tcp 1040 ---A--- 0 0.1 4.1 34 68
- 17.521664 2 4 tcp 1040 ---A--- 0 0.1 4.1 34 68
r 17.542496 2 4 tcp 1040 ---A--- 0 0.1 4.1 34 68
+ 17.542496 4 2 ack 40 ------- 0 4.1 0.1 34 69
- 17.542496 4 2 ack 40 ------- 0 4.1 0.1 34 69
r 17.562528 4 2 ack 40 ------- 0 4.1 0.1 34 69
+ 17.562528 2 1 ack 40 ------- 0 4.1 0.1 34 69
- 17.562528 2 1 ack 40 ------- 0 4.1 0.1 34 69
r 17.57256 2 1 ack 40 ------- 0 4.1 0.1 34 69
+ 17.57256 1 0 ack 40 ------- 0 4.1 0.1 34 69
- 17.57256 1 0 ack 40 ------- 0 4.1 0.1 34 69
r 17.582592 1 0 ack 40 ------- 0 4.1 0.1 34 69
+ 18 0 1 tcp 1040 ---A--- 0 0.1 4.1 35 70
- 18 0 1 tcp 1040 ---A--- 0 0.1 4.1 35 70
r 18.010832 0 1 tcp 1040 ---A--- 0 0.1 4.1 35 70
+ 18.010832 1 2 tcp 1040 ---A--- 0 0.1 4.1 35 70
- 18.010832 1 2 tcp 1040 ---A--- 0 0.1 4.1 35 70
r 18.021664 1 2 tcp 1040 ---A--- 0 0.1 4.1 35 70
+ 18.021664 2 4 tcp 1040 ---A--- 0 0.1 4.1 35 70
- 18.021664 2 4 tcp 1040 ---A--- 0 0.1 4.1 35 70
r 18.042496 2 4 tcp 1040 ---A--- 0 0.1 4.1 35 70
+ 18.042496 4 2 ack 40 ------- 0 4.1 0.1 35 71
- 18.042496 4 2 ack 40 ------- 0 4.1 0.1 35 71
r 18.062528 4 2 ack 40 ------- 0 4.1 0.1 35 71
+ 18.062528 2 1 ack 40 ------- 0 4.1 0.1 35 71
- 18.062528 2 1 ack 40 ------- 0 4.1 0.1 35 71
r 18.07256 2 1 ack 40 ------- 0 4.1 0.1 35 71
+ 18.07256 1 0 ack 40 ------- 0 4.1 0.1 35 71
- 18.07256 1 0 ack 40 ------- 0 4.1 0.1 35 71
r 18.082592 1 0 ack 40 ------- 0 4.1 0.1 35 71
+ 18.5 0 1 tcp 1040 ---A--- 0 0.1 4.1 36 72