+ 0.5 0 1 cbr 50 ------- 0 0.0 1.1 0 0
- 0.5 0 1 cbr 50 ------- 0 0.0 1.1 0 0
r 0.5104 0 1 cbr 50 ------- 0 0.0 1.1 0 0
+ 0.7 0 1 cbr 50 ------- 0 0.0 1.1 1 1
- 0.7 0 1 cbr 50 ------- 0 0.0 1.1 1 1
r 0.7104 0 1 cbr 50 ------- 0 0.0 1.1 1 1
+ 0.9 0 1 cbr 50 ------- 0 0.0 1.1 2 2
- 0.9 0 1 cbr 50 ------- 0 0.0 1.1 2 2
r 0.9104 0 1 cbr 50 ------- 0 0.0 1.1 2 2
+ 1.1 0 1 cbr 50 ------- 0 0.0 1.1 3 3
- 1.1 0 1 cbr 50 ------- 0 0.0 1.1 3 3
r 1.1104 0 1 cbr 50 ------- 0 0.0 1.1 3 3
+ 1.3 0 1 cbr 50 ------- 0 0.0 1.1 4 4
- 1.3 0 1 cbr 50 ------- 0 0.0 1.1 4 4
r 1.3104 0 1 cbr 50 ------- 0 0.0 1.1 4 4
+ 1.5 0 1 cbr 50 ------- 0 0.0 1.1 5 5
- 1.5 0 1 cbr 50 ------- 0 0.0 1.1 5 5
r 1.5104 0 1 cbr 50 ------- 0 0.0 1.1 5 5
+ 1.7 0 1 cbr 50 ------- 0 0.0 1.1 6 6
- 1.7 0 1 cbr 50 ------- 0 0.0 1.1 6 6
r 1.7104 0 1 cbr 50 ------- 0 0.0 1.1 6 6
+ 1.9 0 1 cbr 50 ------- 0 0.0 1.1 7 7
- 1.9 0 1 cbr 50 ------- 0 0.0 1.1 7 7
r 1.9104 0 1 cbr 50 ------- 0 0.0 1.1 7 7
+ 2.1 0 1 cbr 50 ------- 0 0.0 1.1 8 8
- 2.1 0 1 cbr 50 ------- 0 0.0 1.1 8 8
r 2.1104 0 1 cbr 50 ------- 0 0.0 1.1 8 8
+ 2.3 0 1 cbr 50 ------- 0 0.0 1.1 9 9
- 2.3 0 1 cbr 50 ------- 0 0.0 1.1 9 9
r 2.3104 0 1 cbr 50 ------- 0 0.0 1.1 9 9
+ 2.5 0 1 cbr 50 ------- 0 0.0 1.1 10 10
- 2.5 0 1 cbr 50 ------- 0 0.0 1.1 10 10
r 2.5104 0 1 cbr 50 ------- 0 0.0 1.1 10 10
+ 2.7 0 1 cbr 50 ------- 0 0.0 1.1 11 11
- 2.7 0 1 cbr 50 ------- 0 0.0 1.1 11 11
r 2.7104 0 1 cbr 50 ------- 0 0.0 1.1 11 11
+ 2.9 0 1 cbr 50 ------- 0 0.0 1.1 12 12
- 2.9 0 1 cbr 50 ------- 0 0.0 1.1 12 12
r 2.9104 0 1 cbr 50 ------- 0 0.0 1.1 12 12
+ 3.1 0 1 cbr 50 ------- 0 0.0 1.1 13 13
- 3.1 0 1 cbr 50 ------- 0 0.0 1.1 13 13
r 3.1104 0 1 cbr 50 ------- 0 0.0 1.1 13 13
+ 3.3 0 1 cbr 50 ------- 0 0.0 1.1 14 14
- 3.3 0 1 cbr 50 ------- 0 0.0 1.1 14 14
r 3.3104 0 1 cbr 50 ------- 0 0.0 1.1 14 14
+ 3.5 0 1 cbr 50 ------- 0 0.0 1.1 15 15
- 3.5 0 1 cbr 50 ------- 0 0.0 1.1 15 15
r 3.5104 0 1 cbr 50 ------- 0 0.0 1.1 15 15
+ 3.7 0 1 cbr 50 ------- 0 0.0 1.1 16 16
- 3.7 0 1 cbr 50 ------- 0 0.0 1.1 16 16
r 3.7104 0 1 cbr 50 ------- 0 0.0 1.1 16 16
+ 3.9 0 1 cbr 50 ------- 0 0.0 1.1 17 17
- 3.9 0 1 cbr 50 ------- 0 0.0 1.1 17 17
r 3.9104 0 1 cbr 50 ------- 0 0.0 1.1 17 17
+ 4.1 0 1 cbr 50 ------- 0 0.0 1.1 18 18
- 4.1 0 1 cbr 50 ------- 0 0.0 1.1 18 18
r 4.1104 0 1 cbr 50 ------- 0 0.0 1.1 18 18
+ 4.3 0 1 cbr 50 ------- 0 0.0 1.1 19 19
- 4.3 0 1 cbr 50 ------- 0 0.0 1.1 19 19
r 4.3104 0 1 cbr 50 ------- 0 0.0 1.1 19 19
