V -t * -v 1.0a5 -a 0
A -t * -n 1 -p 0 -o 0x7fffffff -c 30 -a 1
A -t * -h 1 -m 1073741823 -s 0
n -t * -a 0 -s 0 -S UP -v circle -c black -i black
n -t * -a 1 -s 1 -S UP -v circle -c black -i black
n -t * -a 2 -s 2 -S UP -v circle -c black -i black
l -t * -s 0 -d 2 -S UP -r 10000000 -D 0.02 -c black
l -t * -s 1 -d 2 -S UP -r 10000000 -D 0.02 -c black
+ -t 1.07122015473477 -s 0 -d 2 -p exp -e 100 -c 0 -i 0 -a 0 -x {0.0 2.0 0 ------- null}
- -t 1.07122015473477 -s 0 -d 2 -p exp -e 100 -c 0 -i 0 -a 0 -x {0.0 2.0 0 ------- null}
h -t 1.07122015473477 -s 0 -d 2 -p exp -e 100 -c 0 -i 0 -a 0 -x {0.0 2.0 -1 ------- null}
+ -t 1.08372015473477 -s 0 -d 2 -p exp -e 100 -c 0 -i 1 -a 0 -x {0.0 2.0 1 ------- null}
- -t 1.08372015473477 -s 0 -d 2 -p exp -e 100 -c 0 -i 1 -a 0 -x {0.0 2.0 1 ------- null}
h -t 1.08372015473477 -s 0 -d 2 -p exp -e 100 -c 0 -i 1 -a 0 -x {0.0 2.0 -1 ------- null}
r -t 1.09130015473477 -s 0 -d 2 -p exp -e 100 -c 0 -i 0 -a 0 -x {0.0 2.0 0 ------- null}
+ -t 1.09622015473477 -s 0 -d 2 -p exp -e 100 -c 0 -i 2 -a 0 -x {0.0 2.0 2 ------- null}
- -t 1.09622015473477 -s 0 -d 2 -p exp -e 100 -c 0 -i 2 -a 0 -x {0.0 2.0 2 ------- null}
h -t 1.09622015473477 -s 0 -d 2 -p exp -e 100 -c 0 -i 2 -a 0 -x {0.0 2.0 -1 ------- null}
r -t 1.10380015473477 -s 0 -d 2 -p exp -e 100 -c 0 -i 1 -a 0 -x {0.0 2.0 1 ------- null}
+ -t 1.10872015473477 -s 0 -d 2 -p exp -e 100 -c 0 -i 3 -a 0 -x {0.0 2.0 3 ------- null}
- -t 1.10872015473477 -s 0 -d 2 -p exp -e 100 -c 0 -i 3 -a 0 -x {0.0 2.0 3 ------- null}
h -t 1.10872015473477 -s 0 -d 2 -p exp -e 100 -c 0 -i 3 -a 0 -x {0.0 2.0 -1 ------- null}
r -t 1.11630015473477 -s 0 -d 2 -p exp -e 100 -c 0 -i 2 -a 0 -x {0.0 2.0 2 ------- null}
+ -t 1.12122015473477 -s 0 -d 2 -p exp -e 100 -c 0 -i 4 -a 0 -x {0.0 2.0 4 ------- null}
- -t 1.12122015473477 -s 0 -d 2 -p exp -e 100 -c 0 -i 4 -a 0 -x {0.0 2.0 4 ------- null}
h -t 1.12122015473477 -s 0 -d 2 -p exp -e 100 -c 0 -i 4 -a 0 -x {0.0 2.0 -1 ------- null}
r -t 1.12880015473477 -s 0 -d 2 -p exp -e 100 -c 0 -i 3 -a 0 -x {0.0 2.0 3 ------- null}
+ -t 1.13372015473477 -s 0 -d 2 -p exp -e 100 -c 0 -i 5 -a 0 -x {0.0 2.0 5 ------- null}
- -t 1.13372015473477 -s 0 -d 2 -p exp -e 100 -c 0 -i 5 -a 0 -x {0.0 2.0 5 ------- null}
h -t 1.13372015473477 -s 0 -d 2 -p exp -e 100 -c 0 -i 5 -a 0 -x {0.0 2.0 -1 ------- null}
r -t 1.14130015473477 -s 0 -d 2 -p exp -e 100 -c 0 -i 4 -a 0 -x {0.0 2.0 4 ------- null}
+ -t 1.14622015473477 -s 0 -d 2 -p exp -e 100 -c 0 -i 6 -a 0 -x {0.0 2.0 6 ------- null}
- -t 1.14622015473477 -s 0 -d 2 -p exp -e 100 -c 0 -i 6 -a 0 -x {0.0 2.0 6 ------- null}
h -t 1.14622015473477 -s 0 -d 2 -p exp -e 100 -c 0 -i 6 -a 0 -x {0.0 2.0 -1 ------- null}
r -t 1.15380015473477 -s 0 -d 2 -p exp -e 100 -c 0 -i 5 -a 0 -x {0.0 2.0 5 ------- null}
+ -t 1.15872015473477 -s 0 -d 2 -p exp -e 100 -c 0 -i 7 -a 0 -x {0.0 2.0 7 ------- null}
- -t 1.15872015473477 -s 0 -d 2 -p exp -e 100 -c 0 -i 7 -a 0 -x {0.0 2.0 7 ------- null}
h -t 1.15872015473477 -s 0 -d 2 -p exp -e 100 -c 0 -i 7 -a 0 -x {0.0 2.0 -1 ------- null}
r -t 1.16630015473477 -s 0 -d 2 -p exp -e 100 -c 0 -i 6 -a 0 -x {0.0 2.0 6 ------- null}
+ -t 1.17122015473477 -s 0 -d 2 -p exp -e 100 -c 0 -i 8 -a 0 -x {0.0 2.0 8 ------- null}
- -t 1.17122015473477 -s 0 -d 2 -p exp -e 100 -c 0 -i 8 -a 0 -x {0.0 2.0 8 ------- null}
h -t 1.17122015473477 -s 0 -d 2 -p exp -e 100 -c 0 -i 8 -a 0 -x {0.0 2.0 -1 ------- null}
r -t 1.17880015473477 -s 0 -d 2 -p exp -e 100 -c 0 -i 7 -a 0 -x {0.0 2.0 7 ------- null}
+ -t 1.18372015473477 -s 0 -d 2 -p exp -e 100 -c 0 -i 9 -a 0 -x {0.0 2.0 9 ------- null}
- -t 1.18372015473477 -s 0 -d 2 -p exp -e 100 -c 0 -i 9 -a 0 -x {0.0 2.0 9 ------- null}
h -t 1.18372015473477 -s 0 -d 2 -p exp -e 100 -c 0 -i 9 -a 0 -x {0.0 2.0 -1 ------- null}
r -t 1.19130015473477 -s 0 -d 2 -p exp -e 100 -c 0 -i 8 -a 0 -x {0.0 2.0 8 ------- null}
+ -t 1.19622015473477 -s 0 -d 2 -p exp -e 100 -c 0 -i 10 -a 0 -x {0.0 2.0 10 ------- null}
- -t 1.19622015473477 -s 0 -d 2 -p exp -e 100 -c 0 -i 10 -a 0 -x {0.0 2.0 10 ------- null}
h -t 1.19622015473477 -s 0 -d 2 -p exp -e 100 -c 0 -i 10 -a 0 -x {0.0 2.0 -1 ------- null}
r -t 1.20380015473477 -s 0 -d 2 -p exp -e 100 -c 0 -i 9 -a 0 -x {0.0 2.0 9 ------- null}
+ -t 1.20872015473477 -s 0 -d 2 -p exp -e 100 -c 0 -i 11 -a 0 -x {0.0 2.0 11 ------- null}
- -t 1.20872015473477 -s 0 -d 2 -p exp -e 100 -c 0 -i 11 -a 0 -x {0.0 2.0 11 ------- null}
h -t 1.20872015473477 -s 0 -d 2 -p exp -e 100 -c 0 -i 11 -a 0 -x {0.0 2.0 -1 ------- null}
r -t 1.21630015473477 -s 0 -d 2 -p exp -e 100 -c 0 -i 10 -a 0 -x {0.0 2.0 10 ------- null}
+ -t 1.22122015473477 -s 0 -d 2 -p exp -e 100 -c 0 -i 12 -a 0 -x {0.0 2.0 12 ------- null}
- -t 1.22122015473477 -s 0 -d 2 -p exp -e 100 -c 0 -i 12 -a 0 -x {0.0 2.0 12 ------- null}
h -t 1.22122015473477 -s 0 -d 2 -p exp -e 100 -c 0 -i 12 -a 0 -x {0.0 2.0 -1 ------- null}
r -t 1.22880015473477 -s 0 -d 2 -p exp -e 100 -c 0 -i 11 -a 0 -x {0.0 2.0 11 ------- null}
+ -t 1.23372015473477 -s 0 -d 2 -p exp -e 100 -c 0 -i 13 -a 0 -x {0.0 2.0 13 ------- null}
- -t 1.23372015473477 -s 0 -d 2 -p exp -e 100 -c 0 -i 13 -a 0 -x {0.0 2.0 13 ------- null}
h -t 1.23372015473477 -s 0 -d 2 -p exp -e 100 -c 0 -i 13 -a 0 -x {0.0 2.0 -1 ------- null}
r -t 1.24130015473477 -s 0 -d 2 -p exp -e 100 -c 0 -i 12 -a 0 -x {0.0 2.0 12 ------- null}
+ -t 1.24622015473477 -s 0 -d 2 -p exp -e 100 -c 0 -i 14 -a 0 -x {0.0 2.0 14 ------- null}
- -t 1.24622015473477 -s 0 -d 2 -p exp -e 100 -c 0 -i 14 -a 0 -x {0.0 2.0 14 ------- null}
h -t 1.24622015473477 -s 0 -d 2 -p exp -e 100 -c 0 -i 14 -a 0 -x {0.0 2.0 -1 ------- null}
r -t 1.25380015473477 -s 0 -d 2 -p exp -e 100 -c 0 -i 13 -a 0 -x {0.0 2.0 13 ------- null}
+ -t 1.25872015473477 -s 0 -d 2 -p exp -e 100 -c 0 -i 15 -a 0 -x {0.0 2.0 15 ------- null}
- -t 1.25872015473477 -s 0 -d 2 -p exp -e 100 -c 0 -i 15 -a 0 -x {0.0 2.0 15 ------- null}
h -t 1.25872015473477 -s 0 -d 2 -p exp -e 100 -c 0 -i 15 -a 0 -x {0.0 2.0 -1 ------- null}
r -t 1.26630015473477 -s 0 -d 2 -p exp -e 100 -c 0 -i 14 -a 0 -x {0.0 2.0 14 ------- null}
+ -t 1.27122015473477 -s 0 -d 2 -p exp -e 100 -c 0 -i 16 -a 0 -x {0.0 2.0 16 ------- null}
- -t 1.27122015473477 -s 0 -d 2 -p exp -e 100 -c 0 -i 16 -a 0 -x {0.0 2.0 16 ------- null}
h -t 1.27122015473477 -s 0 -d 2 -p exp -e 100 -c 0 -i 16 -a 0 -x {0.0 2.0 -1 ------- null}
r -t 1.27880015473477 -s 0 -d 2 -p exp -e 100 -c 0 -i 15 -a 0 -x {0.0 2.0 15 ------- null}
+ -t 1.28372015473477 -s 0 -d 2 -p exp -e 100 -c 0 -i 17 -a 0 -x {0.0 2.0 17 ------- null}
- -t 1.28372015473477 -s 0 -d 2 -p exp -e 100 -c 0 -i 17 -a 0 -x {0.0 2.0 17 ------- null}
h -t 1.28372015473477 -s 0 -d 2 -p exp -e 100 -c 0 -i 17 -a 0 -x {0.0 2.0 -1 ------- null}
r -t 1.29130015473477 -s 0 -d 2 -p exp -e 100 -c 0 -i 16 -a 0 -x {0.0 2.0 16 ------- null}
+ -t 1.29622015473477 -s 0 -d 2 -p exp -e 100 -c 0 -i 18 -a 0 -x {0.0 2.0 18 ------- null}
- -t 1.29622015473477 -s 0 -d 2 -p exp -e 100 -c 0 -i 18 -a 0 -x {0.0 2.0 18 ------- null}
h -t 1.29622015473477 -s 0 -d 2 -p exp -e 100 -c 0 -i 18 -a 0 -x {0.0 2.0 -1 ------- null}
r -t 1.30380015473477 -s 0 -d 2 -p exp -e 100 -c 0 -i 17 -a 0 -x {0.0 2.0 17 ------- null}
+ -t 1.30872015473477 -s 0 -d 2 -p exp -e 100 -c 0 -i 19 -a 0 -x {0.0 2.0 19 ------- null}
- -t 1.30872015473477 -s 0 -d 2 -p exp -e 100 -c 0 -i 19 -a 0 -x {0.0 2.0 19 ------- null}
h -t 1.30872015473477 -s 0 -d 2 -p exp -e 100 -c 0 -i 19 -a 0 -x {0.0 2.0 -1 ------- null}
r -t 1.31630015473477 -s 0 -d 2 -p exp -e 100 -c 0 -i 18 -a 0 -x {0.0 2.0 18 ------- null}
+ -t 1.32122015473477 -s 0 -d 2 -p exp -e 100 -c 0 -i 20 -a 0 -x {0.0 2.0 20 ------- null}
- -t 1.32122015473477 -s 0 -d 2 -p exp -e 100 -c 0 -i 20 -a 0 -x {0.0 2.0 20 ------- null}
h -t 1.32122015473477 -s 0 -d 2 -p exp -e 100 -c 0 -i 20 -a 0 -x {0.0 2.0 -1 ------- null}
r -t 1.32880015473477 -s 0 -d 2 -p exp -e 100 -c 0 -i 19 -a 0 -x {0.0 2.0 19 ------- null}
+ -t 1.33372015473477 -s 0 -d 2 -p exp -e 100 -c 0 -i 21 -a 0 -x {0.0 2.0 21 ------- null}
- -t 1.33372015473477 -s 0 -d 2 -p exp -e 100 -c 0 -i 21 -a 0 -x {0.0 2.0 21 ------- null}
h -t 1.33372015473477 -s 0 -d 2 -p exp -e 100 -c 0 -i 21 -a 0 -x {0.0 2.0 -1 ------- null}
r -t 1.34130015473477 -s 0 -d 2 -p exp -e 100 -c 0 -i 20 -a 0 -x {0.0 2.0 20 ------- null}
+ -t 1.34622015473477 -s 0 -d 2 -p exp -e 100 -c 0 -i 22 -a 0 -x {0.0 2.0 22 ------- null}
- -t 1.34622015473477 -s 0 -d 2 -p exp -e 100 -c 0 -i 22 -a 0 -x {0.0 2.0 22 ------- null}
h -t 1.34622015473477 -s 0 -d 2 -p exp -e 100 -c 0 -i 22 -a 0 -x {0.0 2.0 -1 ------- null}
r -t 1.35380015473477 -s 0 -d 2 -p exp -e 100 -c 0 -i 21 -a 0 -x {0.0 2.0 21 ------- null}
+ -t 1.35872015473477 -s 0 -d 2 -p exp -e 100 -c 0 -i 23 -a 0 -x {0.0 2.0 23 ------- null}
- -t 1.35872015473477 -s 0 -d 2 -p exp -e 100 -c 0 -i 23 -a 0 -x {0.0 2.0 23 ------- null}
h -t 1.35872015473477 -s 0 -d 2 -p exp -e 100 -c 0 -i 23 -a 0 -x {0.0 2.0 -1 ------- null}
r -t 1.36630015473477 -s 0 -d 2 -p exp -e 100 -c 0 -i 22 -a 0 -x {0.0 2.0 22 ------- null}
+ -t 1.37122015473477 -s 0 -d 2 -p exp -e 100 -c 0 -i 24 -a 0 -x {0.0 2.0 24 ------- null}
- -t 1.37122015473477 -s 0 -d 2 -p exp -e 100 -c 0 -i 24 -a 0 -x {0.0 2.0 24 ------- null}
h -t 1.37122015473477 -s 0 -d 2 -p exp -e 100 -c 0 -i 24 -a 0 -x {0.0 2.0 -1 ------- null}
r -t 1.37880015473477 -s 0 -d 2 -p exp -e 100 -c 0 -i 23 -a 0 -x {0.0 2.0 23 ------- null}
+ -t 1.38372015473477 -s 0 -d 2 -p exp -e 100 -c 0 -i 25 -a 0 -x {0.0 2.0 25 ------- null}
- -t 1.38372015473477 -s 0 -d 2 -p exp -e 100 -c 0 -i 25 -a 0 -x {0.0 2.0 25 ------- null}
h -t 1.38372015473477 -s 0 -d 2 -p exp -e 100 -c 0 -i 25 -a 0 -x {0.0 2.0 -1 ------- null}
r -t 1.39130015473477 -s 0 -d 2 -p exp -e 100 -c 0 -i 24 -a 0 -x {0.0 2.0 24 ------- null}
+ -t 1.39622015473477 -s 0 -d 2 -p exp -e 100 -c 0 -i 26 -a 0 -x {0.0 2.0 26 ------- null}
- -t 1.39622015473477 -s 0 -d 2 -p exp -e 100 -c 0 -i 26 -a 0 -x {0.0 2.0 26 ------- null}
h -t 1.39622015473477 -s 0 -d 2 -p exp -e 100 -c 0 -i 26 -a 0 -x {0.0 2.0 -1 ------- null}
r -t 1.40380015473477 -s 0 -d 2 -p exp -e 100 -c 0 -i 25 -a 0 -x {0.0 2.0 25 ------- null}
+ -t 1.40872015473477 -s 0 -d 2 -p exp -e 100 -c 0 -i 27 -a 0 -x {0.0 2.0 27 ------- null}
- -t 1.40872015473477 -s 0 -d 2 -p exp -e 100 -c 0 -i 27 -a 0 -x {0.0 2.0 27 ------- null}
h -t 1.40872015473477 -s 0 -d 2 -p exp -e 100 -c 0 -i 27 -a 0 -x {0.0 2.0 -1 ------- null}
r -t 1.41630015473477 -s 0 -d 2 -p exp -e 100 -c 0 -i 26 -a 0 -x {0.0 2.0 26 ------- null}
+ -t 1.42122015473477 -s 0 -d 2 -p exp -e 100 -c 0 -i 28 -a 0 -x {0.0 2.0 28 ------- null}
- -t 1.42122015473477 -s 0 -d 2 -p exp -e 100 -c 0 -i 28 -a 0 -x {0.0 2.0 28 ------- null}
h -t 1.42122015473477 -s 0 -d 2 -p exp -e 100 -c 0 -i 28 -a 0 -x {0.0 2.0 -1 ------- null}
r -t 1.42880015473477 -s 0 -d 2 -p exp -e 100 -c 0 -i 27 -a 0 -x {0.0 2.0 27 ------- null}
+ -t 1.43372015473477 -s 0 -d 2 -p exp -e 100 -c 0 -i 29 -a 0 -x {0.0 2.0 29 ------- null}
- -t 1.43372015473477 -s 0 -d 2 -p exp -e 100 -c 0 -i 29 -a 0 -x {0.0 2.0 29 ------- null}
h -t 1.43372015473477 -s 0 -d 2 -p exp -e 100 -c 0 -i 29 -a 0 -x {0.0 2.0 -1 ------- null}
r -t 1.44130015473477 -s 0 -d 2 -p exp -e 100 -c 0 -i 28 -a 0 -x {0.0 2.0 28 ------- null}
+ -t 1.44622015473477 -s 0 -d 2 -p exp -e 100 -c 0 -i 30 -a 0 -x {0.0 2.0 30 ------- null}
- -t 1.44622015473477 -s 0 -d 2 -p exp -e 100 -c 0 -i 30 -a 0 -x {0.0 2.0 30 ------- null}
h -t 1.44622015473477 -s 0 -d 2 -p exp -e 100 -c 0 -i 30 -a 0 -x {0.0 2.0 -1 ------- null}
r -t 1.45380015473477 -s 0 -d 2 -p exp -e 100 -c 0 -i 29 -a 0 -x {0.0 2.0 29 ------- null}
+ -t 1.45872015473477 -s 0 -d 2 -p exp -e 100 -c 0 -i 31 -a 0 -x {0.0 2.0 31 ------- null}
- -t 1.45872015473477 -s 0 -d 2 -p exp -e 100 -c 0 -i 31 -a 0 -x {0.0 2.0 31 ------- null}
h -t 1.45872015473477 -s 0 -d 2 -p exp -e 100 -c 0 -i 31 -a 0 -x {0.0 2.0 -1 ------- null}
r -t 1.46630015473477 -s 0 -d 2 -p exp -e 100 -c 0 -i 30 -a 0 -x {0.0 2.0 30 ------- null}
+ -t 1.47122015473477 -s 0 -d 2 -p exp -e 100 -c 0 -i 32 -a 0 -x {0.0 2.0 32 ------- null}
- -t 1.47122015473477 -s 0 -d 2 -p exp -e 100 -c 0 -i 32 -a 0 -x {0.0 2.0 32 ------- null}
h -t 1.47122015473477 -s 0 -d 2 -p exp -e 100 -c 0 -i 32 -a 0 -x {0.0 2.0 -1 ------- null}
r -t 1.47880015473477 -s 0 -d 2 -p exp -e 100 -c 0 -i 31 -a 0 -x {0.0 2.0 31 ------- null}
+ -t 1.48372015473477 -s 0 -d 2 -p exp -e 100 -c 0 -i 33 -a 0 -x {0.0 2.0 33 ------- null}
- -t 1.48372015473477 -s 0 -d 2 -p exp -e 100 -c 0 -i 33 -a 0 -x {0.0 2.0 33 ------- null}
h -t 1.48372015473477 -s 0 -d 2 -p exp -e 100 -c 0 -i 33 -a 0 -x {0.0 2.0 -1 ------- null}
r -t 1.49130015473477 -s 0 -d 2 -p exp -e 100 -c 0 -i 32 -a 0 -x {0.0 2.0 32 ------- null}
+ -t 1.49622015473477 -s 0 -d 2 -p exp -e 100 -c 0 -i 34 -a 0 -x {0.0 2.0 34 ------- null}
- -t 1.49622015473477 -s 0 -d 2 -p exp -e 100 -c 0 -i 34 -a 0 -x {0.0 2.0 34 ------- null}
h -t 1.49622015473477 -s 0 -d 2 -p exp -e 100 -c 0 -i 34 -a 0 -x {0.0 2.0 -1 ------- null}
r -t 1.50380015473477 -s 0 -d 2 -p exp -e 100 -c 0 -i 33 -a 0 -x {0.0 2.0 33 ------- null}
+ -t 1.50872015473477 -s 0 -d 2 -p exp -e 100 -c 0 -i 35 -a 0 -x {0.0 2.0 35 ------- null}
- -t 1.50872015473477 -s 0 -d 2 -p exp -e 100 -c 0 -i 35 -a 0 -x {0.0 2.0 35 ------- null}
h -t 1.50872015473477 -s 0 -d 2 -p exp -e 100 -c 0 -i 35 -a 0 -x {0.0 2.0 -1 ------- null}
r -t 1.51630015473477 -s 0 -d 2 -p exp -e 100 -c 0 -i 34 -a 0 -x {0.0 2.0 34 ------- null}
+ -t 1.52122015473477 -s 0 -d 2 -p exp -e 100 -c 0 -i 36 -a 0 -x {0.0 2.0 36 ------- null}
- -t 1.52122015473477 -s 0 -d 2 -p exp -e 100 -c 0 -i 36 -a 0 -x {0.0 2.0 36 ------- null}
h -t 1.52122015473477 -s 0 -d 2 -p exp -e 100 -c 0 -i 36 -a 0 -x {0.0 2.0 -1 ------- null}
r -t 1.52880015473477 -s 0 -d 2 -p exp -e 100 -c 0 -i 35 -a 0 -x {0.0 2.0 35 ------- null}
+ -t 1.53372015473477 -s 0 -d 2 -p exp -e 100 -c 0 -i 37 -a 0 -x {0.0 2.0 37 ------- null}
- -t 1.53372015473477 -s 0 -d 2 -p exp -e 100 -c 0 -i 37 -a 0 -x {0.0 2.0 37 ------- null}
h -t 1.53372015473477 -s 0 -d 2 -p exp -e 100 -c 0 -i 37 -a 0 -x {0.0 2.0 -1 ------- null}
r -t 1.54130015473477 -s 0 -d 2 -p exp -e 100 -c 0 -i 36 -a 0 -x {0.0 2.0 36 ------- null}
+ -t 1.54622015473477 -s 0 -d 2 -p exp -e 100 -c 0 -i 38 -a 0 -x {0.0 2.0 38 ------- null}
- -t 1.54622015473477 -s 0 -d 2 -p exp -e 100 -c 0 -i 38 -a 0 -x {0.0 2.0 38 ------- null}
h -t 1.54622015473477 -s 0 -d 2 -p exp -e 100 -c 0 -i 38 -a 0 -x {0.0 2.0 -1 ------- null}
r -t 1.55380015473477 -s 0 -d 2 -p exp -e 100 -c 0 -i 37 -a 0 -x {0.0 2.0 37 ------- null}
+ -t 1.55872015473477 -s 0 -d 2 -p exp -e 100 -c 0 -i 39 -a 0 -x {0.0 2.0 39 ------- null}
- -t 1.55872015473477 -s 0 -d 2 -p exp -e 100 -c 0 -i 39 -a 0 -x {0.0 2.0 39 ------- null}
h -t 1.55872015473477 -s 0 -d 2 -p exp -e 100 -c 0 -i 39 -a 0 -x {0.0 2.0 -1 ------- null}
r -t 1.56630015473477 -s 0 -d 2 -p exp -e 100 -c 0 -i 38 -a 0 -x {0.0 2.0 38 ------- null}
+ -t 1.57122015473477 -s 0 -d 2 -p exp -e 100 -c 0 -i 40 -a 0 -x {0.0 2.0 40 ------- null}
- -t 1.57122015473477 -s 0 -d 2 -p exp -e 100 -c 0 -i 40 -a 0 -x {0.0 2.0 40 ------- null}
h -t 1.57122015473477 -s 0 -d 2 -p exp -e 100 -c 0 -i 40 -a 0 -x {0.0 2.0 -1 ------- null}
r -t 1.57880015473477 -s 0 -d 2 -p exp -e 100 -c 0 -i 39 -a 0 -x {0.0 2.0 39 ------- null}
+ -t 1.58372015473477 -s 0 -d 2 -p exp -e 100 -c 0 -i 41 -a 0 -x {0.0 2.0 41 ------- null}
- -t 1.58372015473477 -s 0 -d 2 -p exp -e 100 -c 0 -i 41 -a 0 -x {0.0 2.0 41 ------- null}
h -t 1.58372015473477 -s 0 -d 2 -p exp -e 100 -c 0 -i 41 -a 0 -x {0.0 2.0 -1 ------- null}
r -t 1.59130015473477 -s 0 -d 2 -p exp -e 100 -c 0 -i 40 -a 0 -x {0.0 2.0 40 ------- null}
+ -t 1.59622015473477 -s 0 -d 2 -p exp -e 100 -c 0 -i 42 -a 0 -x {0.0 2.0 42 ------- null}
- -t 1.59622015473477 -s 0 -d 2 -p exp -e 100 -c 0 -i 42 -a 0 -x {0.0 2.0 42 ------- null}
h -t 1.59622015473477 -s 0 -d 2 -p exp -e 100 -c 0 -i 42 -a 0 -x {0.0 2.0 -1 ------- null}
r -t 1.60380015473477 -s 0 -d 2 -p exp -e 100 -c 0 -i 41 -a 0 -x {0.0 2.0 41 ------- null}
+ -t 1.60872015473477 -s 0 -d 2 -p exp -e 100 -c 0 -i 43 -a 0 -x {0.0 2.0 43 ------- null}
- -t 1.60872015473477 -s 0 -d 2 -p exp -e 100 -c 0 -i 43 -a 0 -x {0.0 2.0 43 ------- null}
h -t 1.60872015473477 -s 0 -d 2 -p exp -e 100 -c 0 -i 43 -a 0 -x {0.0 2.0 -1 ------- null}
r -t 1.61630015473477 -s 0 -d 2 -p exp -e 100 -c 0 -i 42 -a 0 -x {0.0 2.0 42 ------- null}
+ -t 1.62122015473477 -s 0 -d 2 -p exp -e 100 -c 0 -i 44 -a 0 -x {0.0 2.0 44 ------- null}
- -t 1.62122015473477 -s 0 -d 2 -p exp -e 100 -c 0 -i 44 -a 0 -x {0.0 2.0 44 ------- null}
h -t 1.62122015473477 -s 0 -d 2 -p exp -e 100 -c 0 -i 44 -a 0 -x {0.0 2.0 -1 ------- null}
r -t 1.62880015473477 -s 0 -d 2 -p exp -e 100 -c 0 -i 43 -a 0 -x {0.0 2.0 43 ------- null}
+ -t 1.63372015473477 -s 0 -d 2 -p exp -e 100 -c 0 -i 45 -a 0 -x {0.0 2.0 45 ------- null}
- -t 1.63372015473477 -s 0 -d 2 -p exp -e 100 -c 0 -i 45 -a 0 -x {0.0 2.0 45 ------- null}
h -t 1.63372015473477 -s 0 -d 2 -p exp -e 100 -c 0 -i 45 -a 0 -x {0.0 2.0 -1 ------- null}
r -t 1.64130015473477 -s 0 -d 2 -p exp -e 100 -c 0 -i 44 -a 0 -x {0.0 2.0 44 ------- null}
+ -t 1.64622015473477 -s 0 -d 2 -p exp -e 100 -c 0 -i 46 -a 0 -x {0.0 2.0 46 ------- null}
- -t 1.64622015473477 -s 0 -d 2 -p exp -e 100 -c 0 -i 46 -a 0 -x {0.0 2.0 46 ------- null}
h -t 1.64622015473477 -s 0 -d 2 -p exp -e 100 -c 0 -i 46 -a 0 -x {0.0 2.0 -1 ------- null}
r -t 1.65380015473477 -s 0 -d 2 -p exp -e 100 -c 0 -i 45 -a 0 -x {0.0 2.0 45 ------- null}
+ -t 1.65872015473477 -s 0 -d 2 -p exp -e 100 -c 0 -i 47 -a 0 -x {0.0 2.0 47 ------- null}
- -t 1.65872015473477 -s 0 -d 2 -p exp -e 100 -c 0 -i 47 -a 0 -x {0.0 2.0 47 ------- null}
h -t 1.65872015473477 -s 0 -d 2 -p exp -e 100 -c 0 -i 47 -a 0 -x {0.0 2.0 -1 ------- null}
r -t 1.66630015473477 -s 0 -d 2 -p exp -e 100 -c 0 -i 46 -a 0 -x {0.0 2.0 46 ------- null}
+ -t 1.67122015473477 -s 0 -d 2 -p exp -e 100 -c 0 -i 48 -a 0 -x {0.0 2.0 48 ------- null}
- -t 1.67122015473477 -s 0 -d 2 -p exp -e 100 -c 0 -i 48 -a 0 -x {0.0 2.0 48 ------- null}
h -t 1.67122015473477 -s 0 -d 2 -p exp -e 100 -c 0 -i 48 -a 0 -x {0.0 2.0 -1 ------- null}
r -t 1.67880015473477 -s 0 -d 2 -p exp -e 100 -c 0 -i 47 -a 0 -x {0.0 2.0 47 ------- null}
+ -t 1.68372015473477 -s 0 -d 2 -p exp -e 100 -c 0 -i 49 -a 0 -x {0.0 2.0 49 ------- null}
- -t 1.68372015473477 -s 0 -d 2 -p exp -e 100 -c 0 -i 49 -a 0 -x {0.0 2.0 49 ------- null}
h -t 1.68372015473477 -s 0 -d 2 -p exp -e 100 -c 0 -i 49 -a 0 -x {0.0 2.0 -1 ------- null}
r -t 1.69130015473477 -s 0 -d 2 -p exp -e 100 -c 0 -i 48 -a 0 -x {0.0 2.0 48 ------- null}
+ -t 1.69622015473477 -s 0 -d 2 -p exp -e 100 -c 0 -i 50 -a 0 -x {0.0 2.0 50 ------- null}
- -t 1.69622015473477 -s 0 -d 2 -p exp -e 100 -c 0 -i 50 -a 0 -x {0.0 2.0 50 ------- null}
h -t 1.69622015473477 -s 0 -d 2 -p exp -e 100 -c 0 -i 50 -a 0 -x {0.0 2.0 -1 ------- null}
r -t 1.70380015473477 -s 0 -d 2 -p exp -e 100 -c 0 -i 49 -a 0 -x {0.0 2.0 49 ------- null}
+ -t 1.70872015473477 -s 0 -d 2 -p exp -e 100 -c 0 -i 51 -a 0 -x {0.0 2.0 51 ------- null}
- -t 1.70872015473477 -s 0 -d 2 -p exp -e 100 -c 0 -i 51 -a 0 -x {0.0 2.0 51 ------- null}
h -t 1.70872015473477 -s 0 -d 2 -p exp -e 100 -c 0 -i 51 -a 0 -x {0.0 2.0 -1 ------- null}
r -t 1.71630015473477 -s 0 -d 2 -p exp -e 100 -c 0 -i 50 -a 0 -x {0.0 2.0 50 ------- null}
+ -t 1.72122015473477 -s 0 -d 2 -p exp -e 100 -c 0 -i 52 -a 0 -x {0.0 2.0 52 ------- null}
- -t 1.72122015473477 -s 0 -d 2 -p exp -e 100 -c 0 -i 52 -a 0 -x {0.0 2.0 52 ------- null}
h -t 1.72122015473477 -s 0 -d 2 -p exp -e 100 -c 0 -i 52 -a 0 -x {0.0 2.0 -1 ------- null}
r -t 1.72880015473477 -s 0 -d 2 -p exp -e 100 -c 0 -i 51 -a 0 -x {0.0 2.0 51 ------- null}
+ -t 1.73372015473477 -s 0 -d 2 -p exp -e 100 -c 0 -i 53 -a 0 -x {0.0 2.0 53 ------- null}
- -t 1.73372015473477 -s 0 -d 2 -p exp -e 100 -c 0 -i 53 -a 0 -x {0.0 2.0 53 ------- null}
h -t 1.73372015473477 -s 0 -d 2 -p exp -e 100 -c 0 -i 53 -a 0 -x {0.0 2.0 -1 ------- null}
r -t 1.74130015473477 -s 0 -d 2 -p exp -e 100 -c 0 -i 52 -a 0 -x {0.0 2.0 52 ------- null}
+ -t 1.74622015473477 -s 0 -d 2 -p exp -e 100 -c 0 -i 54 -a 0 -x {0.0 2.0 54 ------- null}
- -t 1.74622015473477 -s 0 -d 2 -p exp -e 100 -c 0 -i 54 -a 0 -x {0.0 2.0 54 ------- null}
h -t 1.74622015473477 -s 0 -d 2 -p exp -e 100 -c 0 -i 54 -a 0 -x {0.0 2.0 -1 ------- null}
r -t 1.75380015473477 -s 0 -d 2 -p exp -e 100 -c 0 -i 53 -a 0 -x {0.0 2.0 53 ------- null}
+ -t 1.75872015473477 -s 0 -d 2 -p exp -e 100 -c 0 -i 55 -a 0 -x {0.0 2.0 55 ------- null}
- -t 1.75872015473477 -s 0 -d 2 -p exp -e 100 -c 0 -i 55 -a 0 -x {0.0 2.0 55 ------- null}
h -t 1.75872015473477 -s 0 -d 2 -p exp -e 100 -c 0 -i 55 -a 0 -x {0.0 2.0 -1 ------- null}
r -t 1.76630015473477 -s 0 -d 2 -p exp -e 100 -c 0 -i 54 -a 0 -x {0.0 2.0 54 ------- null}
+ -t 1.77122015473477 -s 0 -d 2 -p exp -e 100 -c 0 -i 56 -a 0 -x {0.0 2.0 56 ------- null}
- -t 1.77122015473477 -s 0 -d 2 -p exp -e 100 -c 0 -i 56 -a 0 -x {0.0 2.0 56 ------- null}
h -t 1.77122015473477 -s 0 -d 2 -p exp -e 100 -c 0 -i 56 -a 0 -x {0.0 2.0 -1 ------- null}
r -t 1.77880015473477 -s 0 -d 2 -p exp -e 100 -c 0 -i 55 -a 0 -x {0.0 2.0 55 ------- null}
+ -t 1.78372015473477 -s 0 -d 2 -p exp -e 100 -c 0 -i 57 -a 0 -x {0.0 2.0 57 ------- null}
- -t 1.78372015473477 -s 0 -d 2 -p exp -e 100 -c 0 -i 57 -a 0 -x {0.0 2.0 57 ------- null}
h -t 1.78372015473477 -s 0 -d 2 -p exp -e 100 -c 0 -i 57 -a 0 -x {0.0 2.0 -1 ------- null}
r -t 1.79130015473477 -s 0 -d 2 -p exp -e 100 -c 0 -i 56 -a 0 -x {0.0 2.0 56 ------- null}
+ -t 1.79622015473477 -s 0 -d 2 -p exp -e 100 -c 0 -i 58 -a 0 -x {0.0 2.0 58 ------- null}
- -t 1.79622015473477 -s 0 -d 2 -p exp -e 100 -c 0 -i 58 -a 0 -x {0.0 2.0 58 ------- null}
h -t 1.79622015473477 -s 0 -d 2 -p exp -e 100 -c 0 -i 58 -a 0 -x {0.0 2.0 -1 ------- null}
r -t 1.80380015473477 -s 0 -d 2 -p exp -e 100 -c 0 -i 57 -a 0 -x {0.0 2.0 57 ------- null}
+ -t 1.80872015473477 -s 0 -d 2 -p exp -e 100 -c 0 -i 59 -a 0 -x {0.0 2.0 59 ------- null}
- -t 1.80872015473477 -s 0 -d 2 -p exp -e 100 -c 0 -i 59 -a 0 -x {0.0 2.0 59 ------- null}
h -t 1.80872015473477 -s 0 -d 2 -p exp -e 100 -c 0 -i 59 -a 0 -x {0.0 2.0 -1 ------- null}
r -t 1.81630015473477 -s 0 -d 2 -p exp -e 100 -c 0 -i 58 -a 0 -x {0.0 2.0 58 ------- null}
+ -t 1.82122015473477 -s 0 -d 2 -p exp -e 100 -c 0 -i 60 -a 0 -x {0.0 2.0 60 ------- null}
- -t 1.82122015473477 -s 0 -d 2 -p exp -e 100 -c 0 -i 60 -a 0 -x {0.0 2.0 60 ------- null}
h -t 1.82122015473477 -s 0 -d 2 -p exp -e 100 -c 0 -i 60 -a 0 -x {0.0 2.0 -1 ------- null}
r -t 1.82880015473477 -s 0 -d 2 -p exp -e 100 -c 0 -i 59 -a 0 -x {0.0 2.0 59 ------- null}
+ -t 1.83372015473477 -s 0 -d 2 -p exp -e 100 -c 0 -i 61 -a 0 -x {0.0 2.0 61 ------- null}
- -t 1.83372015473477 -s 0 -d 2 -p exp -e 100 -c 0 -i 61 -a 0 -x {0.0 2.0 61 ------- null}
h -t 1.83372015473477 -s 0 -d 2 -p exp -e 100 -c 0 -i 61 -a 0 -x {0.0 2.0 -1 ------- null}
r -t 1.84130015473477 -s 0 -d 2 -p exp -e 100 -c 0 -i 60 -a 0 -x {0.0 2.0 60 ------- null}
+ -t 1.84622015473477 -s 0 -d 2 -p exp -e 100 -c 0 -i 62 -a 0 -x {0.0 2.0 62 ------- null}
- -t 1.84622015473477 -s 0 -d 2 -p exp -e 100 -c 0 -i 62 -a 0 -x {0.0 2.0 62 ------- null}
h -t 1.84622015473477 -s 0 -d 2 -p exp -e 100 -c 0 -i 62 -a 0 -x {0.0 2.0 -1 ------- null}
r -t 1.85380015473477 -s 0 -d 2 -p exp -e 100 -c 0 -i 61 -a 0 -x {0.0 2.0 61 ------- null}
+ -t 1.85872015473477 -s 0 -d 2 -p exp -e 100 -c 0 -i 63 -a 0 -x {0.0 2.0 63 ------- null}
- -t 1.85872015473477 -s 0 -d 2 -p exp -e 100 -c 0 -i 63 -a 0 -x {0.0 2.0 63 ------- null}
h -t 1.85872015473477 -s 0 -d 2 -p exp -e 100 -c 0 -i 63 -a 0 -x {0.0 2.0 -1 ------- null}
r -t 1.86630015473477 -s 0 -d 2 -p exp -e 100 -c 0 -i 62 -a 0 -x {0.0 2.0 62 ------- null}
+ -t 1.87122015473477 -s 0 -d 2 -p exp -e 100 -c 0 -i 64 -a 0 -x {0.0 2.0 64 ------- null}
- -t 1.87122015473477 -s 0 -d 2 -p exp -e 100 -c 0 -i 64 -a 0 -x {0.0 2.0 64 ------- null}
h -t 1.87122015473477 -s 0 -d 2 -p exp -e 100 -c 0 -i 64 -a 0 -x {0.0 2.0 -1 ------- null}
r -t 1.87880015473477 -s 0 -d 2 -p exp -e 100 -c 0 -i 63 -a 0 -x {0.0 2.0 63 ------- null}
+ -t 1.88372015473477 -s 0 -d 2 -p exp -e 100 -c 0 -i 65 -a 0 -x {0.0 2.0 65 ------- null}
- -t 1.88372015473477 -s 0 -d 2 -p exp -e 100 -c 0 -i 65 -a 0 -x {0.0 2.0 65 ------- null}
h -t 1.88372015473477 -s 0 -d 2 -p exp -e 100 -c 0 -i 65 -a 0 -x {0.0 2.0 -1 ------- null}
r -t 1.89130015473477 -s 0 -d 2 -p exp -e 100 -c 0 -i 64 -a 0 -x {0.0 2.0 64 ------- null}
+ -t 1.89622015473477 -s 0 -d 2 -p exp -e 100 -c 0 -i 66 -a 0 -x {0.0 2.0 66 ------- null}
- -t 1.89622015473477 -s 0 -d 2 -p exp -e 100 -c 0 -i 66 -a 0 -x {0.0 2.0 66 ------- null}
h -t 1.89622015473477 -s 0 -d 2 -p exp -e 100 -c 0 -i 66 -a 0 -x {0.0 2.0 -1 ------- null}
r -t 1.90380015473477 -s 0 -d 2 -p exp -e 100 -c 0 -i 65 -a 0 -x {0.0 2.0 65 ------- null}
+ -t 1.90872015473477 -s 0 -d 2 -p exp -e 100 -c 0 -i 67 -a 0 -x {0.0 2.0 67 ------- null}
- -t 1.90872015473477 -s 0 -d 2 -p exp -e 100 -c 0 -i 67 -a 0 -x {0.0 2.0 67 ------- null}
h -t 1.90872015473477 -s 0 -d 2 -p exp -e 100 -c 0 -i 67 -a 0 -x {0.0 2.0 -1 ------- null}
r -t 1.91630015473477 -s 0 -d 2 -p exp -e 100 -c 0 -i 66 -a 0 -x {0.0 2.0 66 ------- null}
+ -t 1.92122015473477 -s 0 -d 2 -p exp -e 100 -c 0 -i 68 -a 0 -x {0.0 2.0 68 ------- null}
- -t 1.92122015473477 -s 0 -d 2 -p exp -e 100 -c 0 -i 68 -a 0 -x {0.0 2.0 68 ------- null}
h -t 1.92122015473477 -s 0 -d 2 -p exp -e 100 -c 0 -i 68 -a 0 -x {0.0 2.0 -1 ------- null}
r -t 1.92880015473477 -s 0 -d 2 -p exp -e 100 -c 0 -i 67 -a 0 -x {0.0 2.0 67 ------- null}
+ -t 1.93372015473477 -s 0 -d 2 -p exp -e 100 -c 0 -i 69 -a 0 -x {0.0 2.0 69 ------- null}
- -t 1.93372015473477 -s 0 -d 2 -p exp -e 100 -c 0 -i 69 -a 0 -x {0.0 2.0 69 ------- null}
h -t 1.93372015473477 -s 0 -d 2 -p exp -e 100 -c 0 -i 69 -a 0 -x {0.0 2.0 -1 ------- null}
r -t 1.94130015473477 -s 0 -d 2 -p exp -e 100 -c 0 -i 68 -a 0 -x {0.0 2.0 68 ------- null}
+ -t 1.94622015473477 -s 0 -d 2 -p exp -e 100 -c 0 -i 70 -a 0 -x {0.0 2.0 70 ------- null}
- -t 1.94622015473477 -s 0 -d 2 -p exp -e 100 -c 0 -i 70 -a 0 -x {0.0 2.0 70 ------- null}
h -t 1.94622015473477 -s 0 -d 2 -p exp -e 100 -c 0 -i 70 -a 0 -x {0.0 2.0 -1 ------- null}
r -t 1.95380015473477 -s 0 -d 2 -p exp -e 100 -c 0 -i 69 -a 0 -x {0.0 2.0 69 ------- null}
+ -t 1.95872015473477 -s 0 -d 2 -p exp -e 100 -c 0 -i 71 -a 0 -x {0.0 2.0 71 ------- null}
- -t 1.95872015473477 -s 0 -d 2 -p exp -e 100 -c 0 -i 71 -a 0 -x {0.0 2.0 71 ------- null}
h -t 1.95872015473477 -s 0 -d 2 -p exp -e 100 -c 0 -i 71 -a 0 -x {0.0 2.0 -1 ------- null}
r -t 1.96630015473477 -s 0 -d 2 -p exp -e 100 -c 0 -i 70 -a 0 -x {0.0 2.0 70 ------- null}
+ -t 1.97122015473477 -s 0 -d 2 -p exp -e 100 -c 0 -i 72 -a 0 -x {0.0 2.0 72 ------- null}
- -t 1.97122015473477 -s 0 -d 2 -p exp -e 100 -c 0 -i 72 -a 0 -x {0.0 2.0 72 ------- null}
h -t 1.97122015473477 -s 0 -d 2 -p exp -e 100 -c 0 -i 72 -a 0 -x {0.0 2.0 -1 ------- null}
r -t 1.97880015473477 -s 0 -d 2 -p exp -e 100 -c 0 -i 71 -a 0 -x {0.0 2.0 71 ------- null}
+ -t 1.98372015473477 -s 0 -d 2 -p exp -e 100 -c 0 -i 73 -a 0 -x {0.0 2.0 73 ------- null}
- -t 1.98372015473477 -s 0 -d 2 -p exp -e 100 -c 0 -i 73 -a 0 -x {0.0 2.0 73 ------- null}
h -t 1.98372015473477 -s 0 -d 2 -p exp -e 100 -c 0 -i 73 -a 0 -x {0.0 2.0 -1 ------- null}
r -t 1.99130015473477 -s 0 -d 2 -p exp -e 100 -c 0 -i 72 -a 0 -x {0.0 2.0 72 ------- null}
+ -t 1.99622015473477 -s 0 -d 2 -p exp -e 100 -c 0 -i 74 -a 0 -x {0.0 2.0 74 ------- null}
- -t 1.99622015473477 -s 0 -d 2 -p exp -e 100 -c 0 -i 74 -a 0 -x {0.0 2.0 74 ------- null}
h -t 1.99622015473477 -s 0 -d 2 -p exp -e 100 -c 0 -i 74 -a 0 -x {0.0 2.0 -1 ------- null}
r -t 2.00380015473477 -s 0 -d 2 -p exp -e 100 -c 0 -i 73 -a 0 -x {0.0 2.0 73 ------- null}
+ -t 2.00872015473477 -s 0 -d 2 -p exp -e 100 -c 0 -i 75 -a 0 -x {0.0 2.0 75 ------- null}
- -t 2.00872015473477 -s 0 -d 2 -p exp -e 100 -c 0 -i 75 -a 0 -x {0.0 2.0 75 ------- null}
h -t 2.00872015473477 -s 0 -d 2 -p exp -e 100 -c 0 -i 75 -a 0 -x {0.0 2.0 -1 ------- null}
r -t 2.01630015473477 -s 0 -d 2 -p exp -e 100 -c 0 -i 74 -a 0 -x {0.0 2.0 74 ------- null}
+ -t 2.02122015473477 -s 0 -d 2 -p exp -e 100 -c 0 -i 76 -a 0 -x {0.0 2.0 76 ------- null}
- -t 2.02122015473477 -s 0 -d 2 -p exp -e 100 -c 0 -i 76 -a 0 -x {0.0 2.0 76 ------- null}
h -t 2.02122015473477 -s 0 -d 2 -p exp -e 100 -c 0 -i 76 -a 0 -x {0.0 2.0 -1 ------- null}
r -t 2.02880015473477 -s 0 -d 2 -p exp -e 100 -c 0 -i 75 -a 0 -x {0.0 2.0 75 ------- null}
+ -t 2.03372015473477 -s 0 -d 2 -p exp -e 100 -c 0 -i 77 -a 0 -x {0.0 2.0 77 ------- null}
- -t 2.03372015473477 -s 0 -d 2 -p exp -e 100 -c 0 -i 77 -a 0 -x {0.0 2.0 77 ------- null}
h -t 2.03372015473477 -s 0 -d 2 -p exp -e 100 -c 0 -i 77 -a 0 -x {0.0 2.0 -1 ------- null}
+ -t 2.03491997920588 -s 1 -d 2 -p exp -e 100 -c 0 -i 78 -a 0 -x {1.0 2.0 0 ------- null}
- -t 2.03491997920588 -s 1 -d 2 -p exp -e 100 -c 0 -i 78 -a 0 -x {1.0 2.0 0 ------- null}
h -t 2.03491997920588 -s 1 -d 2 -p exp -e 100 -c 0 -i 78 -a 0 -x {1.0 2.0 -1 ------- null}
r -t 2.04130015473477 -s 0 -d 2 -p exp -e 100 -c 0 -i 76 -a 0 -x {0.0 2.0 76 ------- null}
+ -t 2.04622015473477 -s 0 -d 2 -p exp -e 100 -c 0 -i 79 -a 0 -x {0.0 2.0 78 ------- null}
- -t 2.04622015473477 -s 0 -d 2 -p exp -e 100 -c 0 -i 79 -a 0 -x {0.0 2.0 78 ------- null}
h -t 2.04622015473477 -s 0 -d 2 -p exp -e 100 -c 0 -i 79 -a 0 -x {0.0 2.0 -1 ------- null}
+ -t 2.04741997920588 -s 1 -d 2 -p exp -e 100 -c 0 -i 80 -a 0 -x {1.0 2.0 1 ------- null}
- -t 2.04741997920588 -s 1 -d 2 -p exp -e 100 -c 0 -i 80 -a 0 -x {1.0 2.0 1 ------- null}
h -t 2.04741997920588 -s 1 -d 2 -p exp -e 100 -c 0 -i 80 -a 0 -x {1.0 2.0 -1 ------- null}
r -t 2.05380015473477 -s 0 -d 2 -p exp -e 100 -c 0 -i 77 -a 0 -x {0.0 2.0 77 ------- null}
r -t 2.05499997920588 -s 1 -d 2 -p exp -e 100 -c 0 -i 78 -a 0 -x {1.0 2.0 0 ------- null}
+ -t 2.05872015473477 -s 0 -d 2 -p exp -e 100 -c 0 -i 81 -a 0 -x {0.0 2.0 79 ------- null}
- -t 2.05872015473477 -s 0 -d 2 -p exp -e 100 -c 0 -i 81 -a 0 -x {0.0 2.0 79 ------- null}
h -t 2.05872015473477 -s 0 -d 2 -p exp -e 100 -c 0 -i 81 -a 0 -x {0.0 2.0 -1 ------- null}
+ -t 2.05991997920588 -s 1 -d 2 -p exp -e 100 -c 0 -i 82 -a 0 -x {1.0 2.0 2 ------- null}