+ 1.07122 0 2 exp 100 ------- 0 0.0 2.0 0 0
- 1.07122 0 2 exp 100 ------- 0 0.0 2.0 0 0
+ 1.08372 0 2 exp 100 ------- 0 0.0 2.0 1 1
- 1.08372 0 2 exp 100 ------- 0 0.0 2.0 1 1
r 1.0913 0 2 exp 100 ------- 0 0.0 2.0 0 0
+ 1.09622 0 2 exp 100 ------- 0 0.0 2.0 2 2
- 1.09622 0 2 exp 100 ------- 0 0.0 2.0 2 2
r 1.1038 0 2 exp 100 ------- 0 0.0 2.0 1 1
+ 1.10872 0 2 exp 100 ------- 0 0.0 2.0 3 3
- 1.10872 0 2 exp 100 ------- 0 0.0 2.0 3 3
r 1.1163 0 2 exp 100 ------- 0 0.0 2.0 2 2
+ 1.12122 0 2 exp 100 ------- 0 0.0 2.0 4 4
- 1.12122 0 2 exp 100 ------- 0 0.0 2.0 4 4
r 1.1288 0 2 exp 100 ------- 0 0.0 2.0 3 3
+ 1.13372 0 2 exp 100 ------- 0 0.0 2.0 5 5
- 1.13372 0 2 exp 100 ------- 0 0.0 2.0 5 5
r 1.1413 0 2 exp 100 ------- 0 0.0 2.0 4 4
+ 1.14622 0 2 exp 100 ------- 0 0.0 2.0 6 6
- 1.14622 0 2 exp 100 ------- 0 0.0 2.0 6 6
r 1.1538 0 2 exp 100 ------- 0 0.0 2.0 5 5
+ 1.15872 0 2 exp 100 ------- 0 0.0 2.0 7 7
- 1.15872 0 2 exp 100 ------- 0 0.0 2.0 7 7
r 1.1663 0 2 exp 100 ------- 0 0.0 2.0 6 6
+ 1.17122 0 2 exp 100 ------- 0 0.0 2.0 8 8
- 1.17122 0 2 exp 100 ------- 0 0.0 2.0 8 8
r 1.1788 0 2 exp 100 ------- 0 0.0 2.0 7 7
+ 1.18372 0 2 exp 100 ------- 0 0.0 2.0 9 9
- 1.18372 0 2 exp 100 ------- 0 0.0 2.0 9 9
r 1.1913 0 2 exp 100 ------- 0 0.0 2.0 8 8
+ 1.19622 0 2 exp 100 ------- 0 0.0 2.0 10 10
- 1.19622 0 2 exp 100 ------- 0 0.0 2.0 10 10
r 1.2038 0 2 exp 100 ------- 0 0.0 2.0 9 9
+ 1.20872 0 2 exp 100 ------- 0 0.0 2.0 11 11
- 1.20872 0 2 exp 100 ------- 0 0.0 2.0 11 11
r 1.2163 0 2 exp 100 ------- 0 0.0 2.0 10 10
+ 1.22122 0 2 exp 100 ------- 0 0.0 2.0 12 12
- 1.22122 0 2 exp 100 ------- 0 0.0 2.0 12 12
r 1.2288 0 2 exp 100 ------- 0 0.0 2.0 11 11
+ 1.23372 0 2 exp 100 ------- 0 0.0 2.0 13 13
- 1.23372 0 2 exp 100 ------- 0 0.0 2.0 13 13
r 1.2413 0 2 exp 100 ------- 0 0.0 2.0 12 12
+ 1.24622 0 2 exp 100 ------- 0 0.0 2.0 14 14
- 1.24622 0 2 exp 100 ------- 0 0.0 2.0 14 14
r 1.2538 0 2 exp 100 ------- 0 0.0 2.0 13 13
+ 1.25872 0 2 exp 100 ------- 0 0.0 2.0 15 15
- 1.25872 0 2 exp 100 ------- 0 0.0 2.0 15 15
r 1.2663 0 2 exp 100 ------- 0 0.0 2.0 14 14
+ 1.27122 0 2 exp 100 ------- 0 0.0 2.0 16 16
- 1.27122 0 2 exp 100 ------- 0 0.0 2.0 16 16
r 1.2788 0 2 exp 100 ------- 0 0.0 2.0 15 15
+ 1.28372 0 2 exp 100 ------- 0 0.0 2.0 17 17
- 1.28372 0 2 exp 100 ------- 0 0.0 2.0 17 17
r 1.2913 0 2 exp 100 ------- 0 0.0 2.0 16 16
+ 1.29622 0 2 exp 100 ------- 0 0.0 2.0 18 18
- 1.29622 0 2 exp 100 ------- 0 0.0 2.0 18 18
r 1.3038 0 2 exp 100 ------- 0 0.0 2.0 17 17
+ 1.30872 0 2 exp 100 ------- 0 0.0 2.0 19 19
- 1.30872 0 2 exp 100 ------- 0 0.0 2.0 19 19
r 1.3163 0 2 exp 100 ------- 0 0.0 2.0 18 18
+ 1.32122 0 2 exp 100 ------- 0 0.0 2.0 20 20
- 1.32122 0 2 exp 100 ------- 0 0.0 2.0 20 20
r 1.3288 0 2 exp 100 ------- 0 0.0 2.0 19 19
+ 1.33372 0 2 exp 100 ------- 0 0.0 2.0 21 21
- 1.33372 0 2 exp 100 ------- 0 0.0 2.0 21 21
r 1.3413 0 2 exp 100 ------- 0 0.0 2.0 20 20
+ 1.34622 0 2 exp 100 ------- 0 0.0 2.0 22 22
- 1.34622 0 2 exp 100 ------- 0 0.0 2.0 22 22
r 1.3538 0 2 exp 100 ------- 0 0.0 2.0 21 21
+ 1.35872 0 2 exp 100 ------- 0 0.0 2.0 23 23
- 1.35872 0 2 exp 100 ------- 0 0.0 2.0 23 23
r 1.3663 0 2 exp 100 ------- 0 0.0 2.0 22 22
+ 1.37122 0 2 exp 100 ------- 0 0.0 2.0 24 24
- 1.37122 0 2 exp 100 ------- 0 0.0 2.0 24 24
r 1.3788 0 2 exp 100 ------- 0 0.0 2.0 23 23
+ 1.38372 0 2 exp 100 ------- 0 0.0 2.0 25 25
- 1.38372 0 2 exp 100 ------- 0 0.0 2.0 25 25
r 1.3913 0 2 exp 100 ------- 0 0.0 2.0 24 24
+ 1.39622 0 2 exp 100 ------- 0 0.0 2.0 26 26
- 1.39622 0 2 exp 100 ------- 0 0.0 2.0 26 26
r 1.4038 0 2 exp 100 ------- 0 0.0 2.0 25 25
+ 1.40872 0 2 exp 100 ------- 0 0.0 2.0 27 27
- 1.40872 0 2 exp 100 ------- 0 0.0 2.0 27 27
r 1.4163 0 2 exp 100 ------- 0 0.0 2.0 26 26
+ 1.42122 0 2 exp 100 ------- 0 0.0 2.0 28 28
- 1.42122 0 2 exp 100 ------- 0 0.0 2.0 28 28
r 1.4288 0 2 exp 100 ------- 0 0.0 2.0 27 27
+ 1.43372 0 2 exp 100 ------- 0 0.0 2.0 29 29
- 1.43372 0 2 exp 100 ------- 0 0.0 2.0 29 29
r 1.4413 0 2 exp 100 ------- 0 0.0 2.0 28 28
+ 1.44622 0 2 exp 100 ------- 0 0.0 2.0 30 30
- 1.44622 0 2 exp 100 ------- 0 0.0 2.0 30 30
r 1.4538 0 2 exp 100 ------- 0 0.0 2.0 29 29
+ 1.45872 0 2 exp 100 ------- 0 0.0 2.0 31 31
- 1.45872 0 2 exp 100 ------- 0 0.0 2.0 31 31
r 1.4663 0 2 exp 100 ------- 0 0.0 2.0 30 30
+ 1.47122 0 2 exp 100 ------- 0 0.0 2.0 32 32
- 1.47122 0 2 exp 100 ------- 0 0.0 2.0 32 32
r 1.4788 0 2 exp 100 ------- 0 0.0 2.0 31 31
+ 1.48372 0 2 exp 100 ------- 0 0.0 2.0 33 33
- 1.48372 0 2 exp 100 ------- 0 0.0 2.0 33 33
r 1.4913 0 2 exp 100 ------- 0 0.0 2.0 32 32
+ 1.49622 0 2 exp 100 ------- 0 0.0 2.0 34 34
- 1.49622 0 2 exp 100 ------- 0 0.0 2.0 34 34
r 1.5038 0 2 exp 100 ------- 0 0.0 2.0 33 33
+ 1.50872 0 2 exp 100 ------- 0 0.0 2.0 35 35
- 1.50872 0 2 exp 100 ------- 0 0.0 2.0 35 35
r 1.5163 0 2 exp 100 ------- 0 0.0 2.0 34 34
+ 1.52122 0 2 exp 100 ------- 0 0.0 2.0 36 36
- 1.52122 0 2 exp 100 ------- 0 0.0 2.0 36 36
r 1.5288 0 2 exp 100 ------- 0 0.0 2.0 35 35
+ 1.53372 0 2 exp 100 ------- 0 0.0 2.0 37 37
- 1.53372 0 2 exp 100 ------- 0 0.0 2.0 37 37
r 1.5413 0 2 exp 100 ------- 0 0.0 2.0 36 36
+ 1.54622 0 2 exp 100 ------- 0 0.0 2.0 38 38
- 1.54622 0 2 exp 100 ------- 0 0.0 2.0 38 38
r 1.5538 0 2 exp 100 ------- 0 0.0 2.0 37 37
+ 1.55872 0 2 exp 100 ------- 0 0.0 2.0 39 39
- 1.55872 0 2 exp 100 ------- 0 0.0 2.0 39 39
r 1.5663 0 2 exp 100 ------- 0 0.0 2.0 38 38
+ 1.57122 0 2 exp 100 ------- 0 0.0 2.0 40 40
- 1.57122 0 2 exp 100 ------- 0 0.0 2.0 40 40
r 1.5788 0 2 exp 100 ------- 0 0.0 2.0 39 39
+ 1.58372 0 2 exp 100 ------- 0 0.0 2.0 41 41
- 1.58372 0 2 exp 100 ------- 0 0.0 2.0 41 41
r 1.5913 0 2 exp 100 ------- 0 0.0 2.0 40 40
+ 1.59622 0 2 exp 100 ------- 0 0.0 2.0 42 42
- 1.59622 0 2 exp 100 ------- 0 0.0 2.0 42 42
r 1.6038 0 2 exp 100 ------- 0 0.0 2.0 41 41
+ 1.60872 0 2 exp 100 ------- 0 0.0 2.0 43 43
- 1.60872 0 2 exp 100 ------- 0 0.0 2.0 43 43
r 1.6163 0 2 exp 100 ------- 0 0.0 2.0 42 42
+ 1.62122 0 2 exp 100 ------- 0 0.0 2.0 44 44
- 1.62122 0 2 exp 100 ------- 0 0.0 2.0 44 44
r 1.6288 0 2 exp 100 ------- 0 0.0 2.0 43 43
+ 1.63372 0 2 exp 100 ------- 0 0.0 2.0 45 45
- 1.63372 0 2 exp 100 ------- 0 0.0 2.0 45 45
r 1.6413 0 2 exp 100 ------- 0 0.0 2.0 44 44
+ 1.64622 0 2 exp 100 ------- 0 0.0 2.0 46 46
- 1.64622 0 2 exp 100 ------- 0 0.0 2.0 46 46
r 1.6538 0 2 exp 100 ------- 0 0.0 2.0 45 45
+ 1.65872 0 2 exp 100 ------- 0 0.0 2.0 47 47
- 1.65872 0 2 exp 100 ------- 0 0.0 2.0 47 47
r 1.6663 0 2 exp 100 ------- 0 0.0 2.0 46 46
+ 1.67122 0 2 exp 100 ------- 0 0.0 2.0 48 48
- 1.67122 0 2 exp 100 ------- 0 0.0 2.0 48 48
r 1.6788 0 2 exp 100 ------- 0 0.0 2.0 47 47
+ 1.68372 0 2 exp 100 ------- 0 0.0 2.0 49 49
- 1.68372 0 2 exp 100 ------- 0 0.0 2.0 49 49
r 1.6913 0 2 exp 100 ------- 0 0.0 2.0 48 48
+ 1.69622 0 2 exp 100 ------- 0 0.0 2.0 50 50
- 1.69622 0 2 exp 100 ------- 0 0.0 2.0 50 50
r 1.7038 0 2 exp 100 ------- 0 0.0 2.0 49 49
+ 1.70872 0 2 exp 100 ------- 0 0.0 2.0 51 51
- 1.70872 0 2 exp 100 ------- 0 0.0 2.0 51 51
r 1.7163 0 2 exp 100 ------- 0 0.0 2.0 50 50
+ 1.72122 0 2 exp 100 ------- 0 0.0 2.0 52 52
- 1.72122 0 2 exp 100 ------- 0 0.0 2.0 52 52
r 1.7288 0 2 exp 100 ------- 0 0.0 2.0 51 51
+ 1.73372 0 2 exp 100 ------- 0 0.0 2.0 53 53
- 1.73372 0 2 exp 100 ------- 0 0.0 2.0 53 53
r 1.7413 0 2 exp 100 ------- 0 0.0 2.0 52 52
+ 1.74622 0 2 exp 100 ------- 0 0.0 2.0 54 54
- 1.74622 0 2 exp 100 ------- 0 0.0 2.0 54 54
r 1.7538 0 2 exp 100 ------- 0 0.0 2.0 53 53
+ 1.75872 0 2 exp 100 ------- 0 0.0 2.0 55 55
- 1.75872 0 2 exp 100 ------- 0 0.0 2.0 55 55
r 1.7663 0 2 exp 100 ------- 0 0.0 2.0 54 54
+ 1.77122 0 2 exp 100 ------- 0 0.0 2.0 56 56
- 1.77122 0 2 exp 100 ------- 0 0.0 2.0 56 56
r 1.7788 0 2 exp 100 ------- 0 0.0 2.0 55 55
+ 1.78372 0 2 exp 100 ------- 0 0.0 2.0 57 57
- 1.78372 0 2 exp 100 ------- 0 0.0 2.0 57 57
r 1.7913 0 2 exp 100 ------- 0 0.0 2.0 56 56
+ 1.79622 0 2 exp 100 ------- 0 0.0 2.0 58 58
- 1.79622 0 2 exp 100 ------- 0 0.0 2.0 58 58
r 1.8038 0 2 exp 100 ------- 0 0.0 2.0 57 57
+ 1.80872 0 2 exp 100 ------- 0 0.0 2.0 59 59
- 1.80872 0 2 exp 100 ------- 0 0.0 2.0 59 59
r 1.8163 0 2 exp 100 ------- 0 0.0 2.0 58 58
+ 1.82122 0 2 exp 100 ------- 0 0.0 2.0 60 60
- 1.82122 0 2 exp 100 ------- 0 0.0 2.0 60 60
r 1.8288 0 2 exp 100 ------- 0 0.0 2.0 59 59
+ 1.83372 0 2 exp 100 ------- 0 0.0 2.0 61 61
- 1.83372 0 2 exp 100 ------- 0 0.0 2.0 61 61
r 1.8413 0 2 exp 100 ------- 0 0.0 2.0 60 60
+ 1.84622 0 2 exp 100 ------- 0 0.0 2.0 62 62
- 1.84622 0 2 exp 100 ------- 0 0.0 2.0 62 62
r 1.8538 0 2 exp 100 ------- 0 0.0 2.0 61 61
+ 1.85872 0 2 exp 100 ------- 0 0.0 2.0 63 63
- 1.85872 0 2 exp 100 ------- 0 0.0 2.0 63 63
r 1.8663 0 2 exp 100 ------- 0 0.0 2.0 62 62
+ 1.87122 0 2 exp 100 ------- 0 0.0 2.0 64 64
- 1.87122 0 2 exp 100 ------- 0 0.0 2.0 64 64
r 1.8788 0 2 exp 100 ------- 0 0.0 2.0 63 63
+ 1.88372 0 2 exp 100 ------- 0 0.0 2.0 65 65
- 1.88372 0 2 exp 100 ------- 0 0.0 2.0 65 65
r 1.8913 0 2 exp 100 ------- 0 0.0 2.0 64 64
+ 1.89622 0 2 exp 100 ------- 0 0.0 2.0 66 66
- 1.89622 0 2 exp 100 ------- 0 0.0 2.0 66 66
r 1.9038 0 2 exp 100 ------- 0 0.0 2.0 65 65
+ 1.90872 0 2 exp 100 ------- 0 0.0 2.0 67 67
- 1.90872 0 2 exp 100 ------- 0 0.0 2.0 67 67
r 1.9163 0 2 exp 100 ------- 0 0.0 2.0 66 66
+ 1.92122 0 2 exp 100 ------- 0 0.0 2.0 68 68
- 1.92122 0 2 exp 100 ------- 0 0.0 2.0 68 68
r 1.9288 0 2 exp 100 ------- 0 0.0 2.0 67 67
+ 1.93372 0 2 exp 100 ------- 0 0.0 2.0 69 69
- 1.93372 0 2 exp 100 ------- 0 0.0 2.0 69 69
r 1.9413 0 2 exp 100 ------- 0 0.0 2.0 68 68
+ 1.94622 0 2 exp 100 ------- 0 0.0 2.0 70 70
- 1.94622 0 2 exp 100 ------- 0 0.0 2.0 70 70
r 1.9538 0 2 exp 100 ------- 0 0.0 2.0 69 69
+ 1.95872 0 2 exp 100 ------- 0 0.0 2.0 71 71
- 1.95872 0 2 exp 100 ------- 0 0.0 2.0 71 71
r 1.9663 0 2 exp 100 ------- 0 0.0 2.0 70 70
+ 1.97122 0 2 exp 100 ------- 0 0.0 2.0 72 72
- 1.97122 0 2 exp 100 ------- 0 0.0 2.0 72 72
r 1.9788 0 2 exp 100 ------- 0 0.0 2.0 71 71
+ 1.98372 0 2 exp 100 ------- 0 0.0 2.0 73 73
- 1.98372 0 2 exp 100 ------- 0 0.0 2.0 73 73
r 1.9913 0 2 exp 100 ------- 0 0.0 2.0 72 72
+ 1.99622 0 2 exp 100 ------- 0 0.0 2.0 74 74
- 1.99622 0 2 exp 100 ------- 0 0.0 2.0 74 74
r 2.0038 0 2 exp 100 ------- 0 0.0 2.0 73 73
+ 2.00872 0 2 exp 100 ------- 0 0.0 2.0 75 75
- 2.00872 0 2 exp 100 ------- 0 0.0 2.0 75 75
r 2.0163 0 2 exp 100 ------- 0 0.0 2.0 74 74
+ 2.02122 0 2 exp 100 ------- 0 0.0 2.0 76 76
- 2.02122 0 2 exp 100 ------- 0 0.0 2.0 76 76
r 2.0288 0 2 exp 100 ------- 0 0.0 2.0 75 75
+ 2.03372 0 2 exp 100 ------- 0 0.0 2.0 77 77
- 2.03372 0 2 exp 100 ------- 0 0.0 2.0 77 77
+ 2.03492 1 2 exp 100 ------- 0 1.0 2.0 0 78
- 2.03492 1 2 exp 100 ------- 0 1.0 2.0 0 78
r 2.0413 0 2 exp 100 ------- 0 0.0 2.0 76 76
+ 2.04622 0 2 exp 100 ------- 0 0.0 2.0 78 79
- 2.04622 0 2 exp 100 ------- 0 0.0 2.0 78 79
+ 2.04742 1 2 exp 100 ------- 0 1.0 2.0 1 80
- 2.04742 1 2 exp 100 ------- 0 1.0 2.0 1 80
r 2.0538 0 2 exp 100 ------- 0 0.0 2.0 77 77
r 2.055 1 2 exp 100 ------- 0 1.0 2.0 0 78
+ 2.05872 0 2 exp 100 ------- 0 0.0 2.0 79 81
- 2.05872 0 2 exp 100 ------- 0 0.0 2.0 79 81
+ 2.05992 1 2 exp 100 ------- 0 1.0 2.0 2 82
- 2.05992 1 2 exp 100 ------- 0 1.0 2.0 2 82
r 2.0663 0 2 exp 100 ------- 0 0.0 2.0 78 79
r 2.0675 1 2 exp 100 ------- 0 1.0 2.0 1 80
+ 2.07122 0 2 exp 100 ------- 0 0.0 2.0 80 83
- 2.07122 0 2 exp 100 ------- 0 0.0 2.0 80 83
+ 2.07242 1 2 exp 100 ------- 0 1.0 2.0 3 84
- 2.07242 1 2 exp 100 ------- 0 1.0 2.0 3 84
r 2.0788 0 2 exp 100 ------- 0 0.0 2.0 79 81
r 2.08 1 2 exp 100 ------- 0 1.0 2.0 2 82
+ 2.08372 0 2 exp 100 ------- 0 0.0 2.0 81 85
- 2.08372 0 2 exp 100 ------- 0 0.0 2.0 81 85
+ 2.08492 1 2 exp 100 ------- 0 1.0 2.0 4 86
- 2.08492 1 2 exp 100 ------- 0 1.0 2.0 4 86
r 2.0913 0 2 exp 100 ------- 0 0.0 2.0 80 83
r 2.0925 1 2 exp 100 ------- 0 1.0 2.0 3 84
+ 2.09622 0 2 exp 100 ------- 0 0.0 2.0 82 87
- 2.09622 0 2 exp 100 ------- 0 0.0 2.0 82 87
+ 2.09742 1 2 exp 100 ------- 0 1.0 2.0 5 88
- 2.09742 1 2 exp 100 ------- 0 1.0 2.0 5 88
r 2.1038 0 2 exp 100 ------- 0 0.0 2.0 81 85
r 2.105 1 2 exp 100 ------- 0 1.0 2.0 4 86
+ 2.10872 0 2 exp 100 ------- 0 0.0 2.0 83 89
- 2.10872 0 2 exp 100 ------- 0 0.0 2.0 83 89
+ 2.10992 1 2 exp 100 ------- 0 1.0 2.0 6 90
- 2.10992 1 2 exp 100 ------- 0 1.0 2.0 6 90
r 2.1163 0 2 exp 100 ------- 0 0.0 2.0 82 87
r 2.1175 1 2 exp 100 ------- 0 1.0 2.0 5 88
+ 2.12122 0 2 exp 100 ------- 0 0.0 2.0 84 91
- 2.12122 0 2 exp 100 ------- 0 0.0 2.0 84 91
+ 2.12242 1 2 exp 100 ------- 0 1.0 2.0 7 92
- 2.12242 1 2 exp 100 ------- 0 1.0 2.0 7 92
r 2.1288 0 2 exp 100 ------- 0 0.0 2.0 83 89
r 2.13 1 2 exp 100 ------- 0 1.0 2.0 6 90
+ 2.13372 0 2 exp 100 ------- 0 0.0 2.0 85 93
- 2.13372 0 2 exp 100 ------- 0 0.0 2.0 85 93
+ 2.13492 1 2 exp 100 ------- 0 1.0 2.0 8 94
- 2.13492 1 2 exp 100 ------- 0 1.0 2.0 8 94
r 2.1413 0 2 exp 100 ------- 0 0.0 2.0 84 91
r 2.1425 1 2 exp 100 ------- 0 1.0 2.0 7 92
+ 2.14622 0 2 exp 100 ------- 0 0.0 2.0 86 95
- 2.14622 0 2 exp 100 ------- 0 0.0 2.0 86 95
+ 2.14742 1 2 exp 100 ------- 0 1.0 2.0 9 96
- 2.14742 1 2 exp 100 ------- 0 1.0 2.0 9 96
r 2.1538 0 2 exp 100 ------- 0 0.0 2.0 85 93
r 2.155 1 2 exp 100 ------- 0 1.0 2.0 8 94
+ 2.15872 0 2 exp 100 ------- 0 0.0 2.0 87 97
- 2.15872 0 2 exp 100 ------- 0 0.0 2.0 87 97
+ 2.15992 1 2 exp 100 ------- 0 1.0 2.0 10 98
- 2.15992 1 2 exp 100 ------- 0 1.0 2.0 10 98
r 2.1663 0 2 exp 100 ------- 0 0.0 2.0 86 95
r 2.1675 1 2 exp 100 ------- 0 1.0 2.0 9 96
+ 2.17122 0 2 exp 100 ------- 0 0.0 2.0 88 99
- 2.17122 0 2 exp 100 ------- 0 0.0 2.0 88 99
+ 2.17242 1 2 exp 100 ------- 0 1.0 2.0 11 100
- 2.17242 1 2 exp 100 ------- 0 1.0 2.0 11 100
r 2.1788 0 2 exp 100 ------- 0 0.0 2.0 87 97
r 2.18 1 2 exp 100 ------- 0 1.0 2.0 10 98
+ 2.18372 0 2 exp 100 ------- 0 0.0 2.0 89 101
- 2.18372 0 2 exp 100 ------- 0 0.0 2.0 89 101
+ 2.18492 1 2 exp 100 ------- 0 1.0 2.0 12 102
- 2.18492 1 2 exp 100 ------- 0 1.0 2.0 12 102
r 2.1913 0 2 exp 100 ------- 0 0.0 2.0 88 99
r 2.1925 1 2 exp 100 ------- 0 1.0 2.0 11 100
+ 2.19622 0 2 exp 100 ------- 0 0.0 2.0 90 103
- 2.19622 0 2 exp 100 ------- 0 0.0 2.0 90 103
+ 2.19742 1 2 exp 100 ------- 0 1.0 2.0 13 104
- 2.19742 1 2 exp 100 ------- 0 1.0 2.0 13 104
r 2.2038 0 2 exp 100 ------- 0 0.0 2.0 89 101
r 2.205 1 2 exp 100 ------- 0 1.0 2.0 12 102
+ 2.20872 0 2 exp 100 ------- 0 0.0 2.0 91 105
- 2.20872 0 2 exp 100 ------- 0 0.0 2.0 91 105
+ 2.20992 1 2 exp 100 ------- 0 1.0 2.0 14 106
- 2.20992 1 2 exp 100 ------- 0 1.0 2.0 14 106
r 2.2163 0 2 exp 100 ------- 0 0.0 2.0 90 103
r 2.2175 1 2 exp 100 ------- 0 1.0 2.0 13 104
+ 2.22122 0 2 exp 100 ------- 0 0.0 2.0 92 107
- 2.22122 0 2 exp 100 ------- 0 0.0 2.0 92 107
+ 2.22242 1 2 exp 100 ------- 0 1.0 2.0 15 108
- 2.22242 1 2 exp 100 ------- 0 1.0 2.0 15 108
r 2.2288 0 2 exp 100 ------- 0 0.0 2.0 91 105
r 2.23 1 2 exp 100 ------- 0 1.0 2.0 14 106
+ 2.23372 0 2 exp 100 ------- 0 0.0 2.0 93 109
- 2.23372 0 2 exp 100 ------- 0 0.0 2.0 93 109
+ 2.23492 1 2 exp 100 ------- 0 1.0 2.0 16 110
- 2.23492 1 2 exp 100 ------- 0 1.0 2.0 16 110
r 2.2413 0 2 exp 100 ------- 0 0.0 2.0 92 107
r 2.2425 1 2 exp 100 ------- 0 1.0 2.0 15 108
+ 2.24622 0 2 exp 100 ------- 0 0.0 2.0 94 111
- 2.24622 0 2 exp 100 ------- 0 0.0 2.0 94 111
+ 2.24742 1 2 exp 100 ------- 0 1.0 2.0 17 112
- 2.24742 1 2 exp 100 ------- 0 1.0 2.0 17 112
r 2.2538 0 2 exp 100 ------- 0 0.0 2.0 93 109
r 2.255 1 2 exp 100 ------- 0 1.0 2.0 16 110
+ 2.25872 0 2 exp 100 ------- 0 0.0 2.0 95 113
- 2.25872 0 2 exp 100 ------- 0 0.0 2.0 95 113
+ 2.25992 1 2 exp 100 ------- 0 1.0 2.0 18 114
- 2.25992 1 2 exp 100 ------- 0 1.0 2.0 18 114
r 2.2663 0 2 exp 100 ------- 0 0.0 2.0 94 111
r 2.2675 1 2 exp 100 ------- 0 1.0 2.0 17 112
+ 2.27122 0 2 exp 100 ------- 0 0.0 2.0 96 115
- 2.27122 0 2 exp 100 ------- 0 0.0 2.0 96 115
+ 2.27242 1 2 exp 100 ------- 0 1.0 2.0 19 116
- 2.27242 1 2 exp 100 ------- 0 1.0 2.0 19 116
r 2.2788 0 2 exp 100 ------- 0 0.0 2.0 95 113
r 2.28 1 2 exp 100 ------- 0 1.0 2.0 18 114
+ 2.28372 0 2 exp 100 ------- 0 0.0 2.0 97 117
- 2.28372 0 2 exp 100 ------- 0 0.0 2.0 97 117
+ 2.28492 1 2 exp 100 ------- 0 1.0 2.0 20 118
- 2.28492 1 2 exp 100 ------- 0 1.0 2.0 20 118
r 2.2913 0 2 exp 100 ------- 0 0.0 2.0 96 115
r 2.2925 1 2 exp 100 ------- 0 1.0 2.0 19 116
+ 2.29622 0 2 exp 100 ------- 0 0.0 2.0 98 119
- 2.29622 0 2 exp 100 ------- 0 0.0 2.0 98 119
+ 2.29742 1 2 exp 100 ------- 0 1.0 2.0 21 120
- 2.29742 1 2 exp 100 ------- 0 1.0 2.0 21 120
r 2.3038 0 2 exp 100 ------- 0 0.0 2.0 97 117
r 2.305 1 2 exp 100 ------- 0 1.0 2.0 20 118
+ 2.30872 0 2 exp 100 ------- 0 0.0 2.0 99 121
- 2.30872 0 2 exp 100 ------- 0 0.0 2.0 99 121
+ 2.30992 1 2 exp 100 ------- 0 1.0 2.0 22 122
- 2.30992 1 2 exp 100 ------- 0 1.0 2.0 22 122
r 2.3163 0 2 exp 100 ------- 0 0.0 2.0 98 119
r 2.3175 1 2 exp 100 ------- 0 1.0 2.0 21 120
+ 2.32122 0 2 exp 100 ------- 0 0.0 2.0 100 123
- 2.32122 0 2 exp 100 ------- 0 0.0 2.0 100 123
+ 2.32242 1 2 exp 100 ------- 0 1.0 2.0 23 124
- 2.32242 1 2 exp 100 ------- 0 1.0 2.0 23 124
r 2.3288 0 2 exp 100 ------- 0 0.0 2.0 99 121
r 2.33 1 2 exp 100 ------- 0 1.0 2.0 22 122
+ 2.33372 0 2 exp 100 ------- 0 0.0 2.0 101 125
- 2.33372 0 2 exp 100 ------- 0 0.0 2.0 101 125
+ 2.33492 1 2 exp 100 ------- 0 1.0 2.0 24 126
- 2.33492 1 2 exp 100 ------- 0 1.0 2.0 24 126
r 2.3413 0 2 exp 100 ------- 0 0.0 2.0 100 123
r 2.3425 1 2 exp 100 ------- 0 1.0 2.0 23 124
+ 2.34622 0 2 exp 100 ------- 0 0.0 2.0 102 127
- 2.34622 0 2 exp 100 ------- 0 0.0 2.0 102 127
+ 2.34742 1 2 exp 100 ------- 0 1.0 2.0 25 128
- 2.34742 1 2 exp 100 ------- 0 1.0 2.0 25 128
r 2.3538 0 2 exp 100 ------- 0 0.0 2.0 101 125
r 2.355 1 2 exp 100 ------- 0 1.0 2.0 24 126
+ 2.35872 0 2 exp 100 ------- 0 0.0 2.0 103 129
- 2.35872 0 2 exp 100 ------- 0 0.0 2.0 103 129
+ 2.35992 1 2 exp 100 ------- 0 1.0 2.0 26 130
- 2.35992 1 2 exp 100 ------- 0 1.0 2.0 26 130
r 2.3663 0 2 exp 100 ------- 0 0.0 2.0 102 127
r 2.3675 1 2 exp 100 ------- 0 1.0 2.0 25 128
+ 2.37122 0 2 exp 100 ------- 0 0.0 2.0 104 131
- 2.37122 0 2 exp 100 ------- 0 0.0 2.0 104 131
+ 2.37242 1 2 exp 100 ------- 0 1.0 2.0 27 132
- 2.37242 1 2 exp 100 ------- 0 1.0 2.0 27 132
r 2.3788 0 2 exp 100 ------- 0 0.0 2.0 103 129
r 2.38 1 2 exp 100 ------- 0 1.0 2.0 26 130
+ 2.38372 0 2 exp 100 ------- 0 0.0 2.0 105 133
- 2.38372 0 2 exp 100 ------- 0 0.0 2.0 105 133
+ 2.38492 1 2 exp 100 ------- 0 1.0 2.0 28 134
- 2.38492 1 2 exp 100 ------- 0 1.0 2.0 28 134
r 2.3913 0 2 exp 100 ------- 0 0.0 2.0 104 131
r 2.3925 1 2 exp 100 ------- 0 1.0 2.0 27 132
+ 2.39622 0 2 exp 100 ------- 0 0.0 2.0 106 135
- 2.39622 0 2 exp 100 ------- 0 0.0 2.0 106 135
+ 2.39742 1 2 exp 100 ------- 0 1.0 2.0 29 136
- 2.39742 1 2 exp 100 ------- 0 1.0 2.0 29 136
r 2.4038 0 2 exp 100 ------- 0 0.0 2.0 105 133
r 2.405 1 2 exp 100 ------- 0 1.0 2.0 28 134
+ 2.40872 0 2 exp 100 ------- 0 0.0 2.0 107 137
- 2.40872 0 2 exp 100 ------- 0 0.0 2.0 107 137
+ 2.40992 1 2 exp 100 ------- 0 1.0 2.0 30 138
- 2.40992 1 2 exp 100 ------- 0 1.0 2.0 30 138
r 2.4163 0 2 exp 100 ------- 0 0.0 2.0 106 135
r 2.4175 1 2 exp 100 ------- 0 1.0 2.0 29 136
+ 2.42122 0 2 exp 100 ------- 0 0.0 2.0 108 139
- 2.42122 0 2 exp 100 ------- 0 0.0 2.0 108 139
+ 2.42242 1 2 exp 100 ------- 0 1.0 2.0 31 140
- 2.42242 1 2 exp 100 ------- 0 1.0 2.0 31 140
r 2.4288 0 2 exp 100 ------- 0 0.0 2.0 107 137
r 2.43 1 2 exp 100 ------- 0 1.0 2.0 30 138
+ 2.43372 0 2 exp 100 ------- 0 0.0 2.0 109 141
- 2.43372 0 2 exp 100 ------- 0 0.0 2.0 109 141
+ 2.43492 1 2 exp 100 ------- 0 1.0 2.0 32 142
- 2.43492 1 2 exp 100 ------- 0 1.0 2.0 32 142
r 2.4413 0 2 exp 100 ------- 0 0.0 2.0 108 139
r 2.4425 1 2 exp 100 ------- 0 1.0 2.0 31 140
+ 2.44622 0 2 exp 100 ------- 0 0.0 2.0 110 143
- 2.44622 0 2 exp 100 ------- 0 0.0 2.0 110 143
r 2.4538 0 2 exp 100 ------- 0 0.0 2.0 109 141
r 2.455 1 2 exp 100 ------- 0 1.0 2.0 32 142
+ 2.45872 0 2 exp 100 ------- 0 0.0 2.0 111 144
- 2.45872 0 2 exp 100 ------- 0 0.0 2.0 111 144
r 2.4663 0 2 exp 100 ------- 0 0.0 2.0 110 143
+ 2.467696 1 2 exp 100 ------- 0 1.0 2.0 33 145
- 2.467696 1 2 exp 100 ------- 0 1.0 2.0 33 145
+ 2.47122 0 2 exp 100 ------- 0 0.0 2.0 112 146
- 2.47122 0 2 exp 100 ------- 0 0.0 2.0 112 146
r 2.4788 0 2 exp 100 ------- 0 0.0 2.0 111 144
+ 2.480196 1 2 exp 100 ------- 0 1.0 2.0 34 147
- 2.480196 1 2 exp 100 ------- 0 1.0 2.0 34 147
+ 2.48372 0 2 exp 100 ------- 0 0.0 2.0 113 148
- 2.48372 0 2 exp 100 ------- 0 0.0 2.0 113 148
r 2.487776 1 2 exp 100 ------- 0 1.0 2.0 33 145
r 2.4913 0 2 exp 100 ------- 0 0.0 2.0 112 146
+ 2.492696 1 2 exp 100 ------- 0 1.0 2.0 35 149
- 2.492696 1 2 exp 100 ------- 0 1.0 2.0 35 149
+ 2.49622 0 2 exp 100 ------- 0 0.0 2.0 114 150
- 2.49622 0 2 exp 100 ------- 0 0.0 2.0 114 150
r 2.500276 1 2 exp 100 ------- 0 1.0 2.0 34 147
r 2.5038 0 2 exp 100 ------- 0 0.0 2.0 113 148
+ 2.505196 1 2 exp 100 ------- 0 1.0 2.0 36 151
- 2.505196 1 2 exp 100 ------- 0 1.0 2.0 36 151
+ 2.50872 0 2 exp 100 ------- 0 0.0 2.0 115 152
- 2.50872 0 2 exp 100 ------- 0 0.0 2.0 115 152
r 2.512776 1 2 exp 100 ------- 0 1.0 2.0 35 149
r 2.5163 0 2 exp 100 ------- 0 0.0 2.0 114 150
+ 2.517696 1 2 exp 100 ------- 0 1.0 2.0 37 153
- 2.517696 1 2 exp 100 ------- 0 1.0 2.0 37 153
+ 2.52122 0 2 exp 100 ------- 0 0.0 2.0 116 154
- 2.52122 0 2 exp 100 ------- 0 0.0 2.0 116 154
r 2.525276 1 2 exp 100 ------- 0 1.0 2.0 36 151
r 2.5288 0 2 exp 100 ------- 0 0.0 2.0 115 152
+ 2.530196 1 2 exp 100 ------- 0 1.0 2.0 38 155
- 2.530196 1 2 exp 100 ------- 0 1.0 2.0 38 155
+ 2.53372 0 2 exp 100 ------- 0 0.0 2.0 117 156
- 2.53372 0 2 exp 100 ------- 0 0.0 2.0 117 156
r 2.537776 1 2 exp 100 ------- 0 1.0 2.0 37 153
r 2.5413 0 2 exp 100 ------- 0 0.0 2.0 116 154
+ 2.542696 1 2 exp 100 ------- 0 1.0 2.0 39 157
- 2.542696 1 2 exp 100 ------- 0 1.0 2.0 39 157
+ 2.54622 0 2 exp 100 ------- 0 0.0 2.0 118 158
- 2.54622 0 2 exp 100 ------- 0 0.0 2.0 118 158
r 2.550276 1 2 exp 100 ------- 0 1.0 2.0 38 155
r 2.5538 0 2 exp 100 ------- 0 0.0 2.0 117 156
+ 2.555196 1 2 exp 100 ------- 0 1.0 2.0 40 159
- 2.555196 1 2 exp 100 ------- 0 1.0 2.0 40 159
+ 2.55872 0 2 exp 100 ------- 0 0.0 2.0 119 160
- 2.55872 0 2 exp 100 ------- 0 0.0 2.0 119 160
r 2.562776 1 2 exp 100 ------- 0 1.0 2.0 39 157
r 2.5663 0 2 exp 100 ------- 0 0.0 2.0 118 158
+ 2.567696 1 2 exp 100 ------- 0 1.0 2.0 41 161
- 2.567696 1 2 exp 100 ------- 0 1.0 2.0 41 161
+ 2.57122 0 2 exp 100 ------- 0 0.0 2.0 120 162
- 2.57122 0 2 exp 100 ------- 0 0.0 2.0 120 162
r 2.575276 1 2 exp 100 ------- 0 1.0 2.0 40 159
r 2.5788 0 2 exp 100 ------- 0 0.0 2.0 119 160
+ 2.580196 1 2 exp 100 ------- 0 1.0 2.0 42 163
- 2.580196 1 2 exp 100 ------- 0 1.0 2.0 42 163
+ 2.58372 0 2 exp 100 ------- 0 0.0 2.0 121 164
- 2.58372 0 2 exp 100 ------- 0 0.0 2.0 121 164
r 2.587776 1 2 exp 100 ------- 0 1.0 2.0 41 161
r 2.5913 0 2 exp 100 ------- 0 0.0 2.0 120 162
+ 2.592696 1 2 exp 100 ------- 0 1.0 2.0 43 165
- 2.592696 1 2 exp 100 ------- 0 1.0 2.0 43 165
+ 2.59622 0 2 exp 100 ------- 0 0.0 2.0 122 166
- 2.59622 0 2 exp 100 ------- 0 0.0 2.0 122 166
r 2.600276 1 2 exp 100 ------- 0 1.0 2.0 42 163
r 2.6038 0 2 exp 100 ------- 0 0.0 2.0 121 164
+ 2.605196 1 2 exp 100 ------- 0 1.0 2.0 44 167
- 2.605196 1 2 exp 100 ------- 0 1.0 2.0 44 167
+ 2.60872 0 2 exp 100 ------- 0 0.0 2.0 123 168
- 2.60872 0 2 exp 100 ------- 0 0.0 2.0 123 168
r 2.612776 1 2 exp 100 ------- 0 1.0 2.0 43 165
r 2.6163 0 2 exp 100 ------- 0 0.0 2.0 122 166
+ 2.617696 1 2 exp 100 ------- 0 1.0 2.0 45 169
- 2.617696 1 2 exp 100 ------- 0 1.0 2.0 45 169
+ 2.62122 0 2 exp 100 ------- 0 0.0 2.0 124 170
- 2.62122 0 2 exp 100 ------- 0 0.0 2.0 124 170
r 2.625276 1 2 exp 100 ------- 0 1.0 2.0 44 167
r 2.6288 0 2 exp 100 ------- 0 0.0 2.0 123 168
+ 2.630196 1 2 exp 100 ------- 0 1.0 2.0 46 171
- 2.630196 1 2 exp 100 ------- 0 1.0 2.0 46 171
+ 2.63372 0 2 exp 100 ------- 0 0.0 2.0 125 172
- 2.63372 0 2 exp 100 ------- 0 0.0 2.0 125 172
r 2.637776 1 2 exp 100 ------- 0 1.0 2.0 45 169
r 2.6413 0 2 exp 100 ------- 0 0.0 2.0 124 170
+ 2.642696 1 2 exp 100 ------- 0 1.0 2.0 47 173
- 2.642696 1 2 exp 100 ------- 0 1.0 2.0 47 173
+ 2.64622 0 2 exp 100 ------- 0 0.0 2.0 126 174
- 2.64622 0 2 exp 100 ------- 0 0.0 2.0 126 174
r 2.650276 1 2 exp 100 ------- 0 1.0 2.0 46 171
r 2.6538 0 2 exp 100 ------- 0 0.0 2.0 125 172
+ 2.655196 1 2 exp 100 ------- 0 1.0 2.0 48 175
- 2.655196 1 2 exp 100 ------- 0 1.0 2.0 48 175
+ 2.65872 0 2 exp 100 ------- 0 0.0 2.0 127 176
- 2.65872 0 2 exp 100 ------- 0 0.0 2.0 127 176
r 2.662776 1 2 exp 100 ------- 0 1.0 2.0 47 173
r 2.6663 0 2 exp 100 ------- 0 0.0 2.0 126 174
+ 2.667696 1 2 exp 100 ------- 0 1.0 2.0 49 177
- 2.667696 1 2 exp 100 ------- 0 1.0 2.0 49 177
+ 2.67122 0 2 exp 100 ------- 0 0.0 2.0 128 178
- 2.67122 0 2 exp 100 ------- 0 0.0 2.0 128 178
r 2.675276 1 2 exp 100 ------- 0 1.0 2.0 48 175
r 2.6788 0 2 exp 100 ------- 0 0.0 2.0 127 176
+ 2.680196 1 2 exp 100 ------- 0 1.0 2.0 50 179
- 2.680196 1 2 exp 100 ------- 0 1.0 2.0 50 179
+ 2.68372 0 2 exp 100 ------- 0 0.0 2.0 129 180
- 2.68372 0 2 exp 100 ------- 0 0.0 2.0 129 180
r 2.687776 1 2 exp 100 ------- 0 1.0 2.0 49 177
r 2.6913 0 2 exp 100 ------- 0 0.0 2.0 128 178
+ 2.692696 1 2 exp 100 ------- 0 1.0 2.0 51 181
- 2.692696 1 2 exp 100 ------- 0 1.0 2.0 51 181
+ 2.69622 0 2 exp 100 ------- 0 0.0 2.0 130 182
- 2.69622 0 2 exp 100 ------- 0 0.0 2.0 130 182
r 2.700276 1 2 exp 100 ------- 0 1.0 2.0 50 179
r 2.7038 0 2 exp 100 ------- 0 0.0 2.0 129 180
+ 2.705196 1 2 exp 100 ------- 0 1.0 2.0 52 183
- 2.705196 1 2 exp 100 ------- 0 1.0 2.0 52 183
+ 2.70872 0 2 exp 100 ------- 0 0.0 2.0 131 184
- 2.70872 0 2 exp 100 ------- 0 0.0 2.0 131 184
r 2.712776 1 2 exp 100 ------- 0 1.0 2.0 51 181
r 2.7163 0 2 exp 100 ------- 0 0.0 2.0 130 182
+ 2.717696 1 2 exp 100 ------- 0 1.0 2.0 53 185
- 2.717696 1 2 exp 100 ------- 0 1.0 2.0 53 185
+ 2.72122 0 2 exp 100 ------- 0 0.0 2.0 132 186
- 2.72122 0 2 exp 100 ------- 0 0.0 2.0 132 186
r 2.725276 1 2 exp 100 ------- 0 1.0 2.0 52 183
r 2.7288 0 2 exp 100 ------- 0 0.0 2.0 131 184
+ 2.730196 1 2 exp 100 ------- 0 1.0 2.0 54 187
- 2.730196 1 2 exp 100 ------- 0 1.0 2.0 54 187
+ 2.73372 0 2 exp 100 ------- 0 0.0 2.0 133 188
- 2.73372 0 2 exp 100 ------- 0 0.0 2.0 133 188
r 2.737776 1 2 exp 100 ------- 0 1.0 2.0 53 185
r 2.7413 0 2 exp 100 ------- 0 0.0 2.0 132 186
+ 2.742696 1 2 exp 100 ------- 0 1.0 2.0 55 189
- 2.742696 1 2 exp 100 ------- 0 1.0 2.0 55 189
+ 2.74622 0 2 exp 100 ------- 0 0.0 2.0 134 190
- 2.74622 0 2 exp 100 ------- 0 0.0 2.0 134 190
r 2.750276 1 2 exp 100 ------- 0 1.0 2.0 54 187
r 2.7538 0 2 exp 100 ------- 0 0.0 2.0 133 188
+ 2.755196 1 2 exp 100 ------- 0 1.0 2.0 56 191
- 2.755196 1 2 exp 100 ------- 0 1.0 2.0 56 191
+ 2.75872 0 2 exp 100 ------- 0 0.0 2.0 135 192
- 2.75872 0 2 exp 100 ------- 0 0.0 2.0 135 192
r 2.762776 1 2 exp 100 ------- 0 1.0 2.0 55 189
r 2.7663 0 2 exp 100 ------- 0 0.0 2.0 134 190
+ 2.767696 1 2 exp 100 ------- 0 1.0 2.0 57 193
- 2.767696 1 2 exp 100 ------- 0 1.0 2.0 57 193
+ 2.77122 0 2 exp 100 ------- 0 0.0 2.0 136 194
- 2.77122 0 2 exp 100 ------- 0 0.0 2.0 136 194
r 2.775276 1 2 exp 100 ------- 0 1.0 2.0 56 191
r 2.7788 0 2 exp 100 ------- 0 0.0 2.0 135 192
+ 2.780196 1 2 exp 100 ------- 0 1.0 2.0 58 195
- 2.780196 1 2 exp 100 ------- 0 1.0 2.0 58 195
+ 2.78372 0 2 exp 100 ------- 0 0.0 2.0 137 196
- 2.78372 0 2 exp 100 ------- 0 0.0 2.0 137 196
r 2.787776 1 2 exp 100 ------- 0 1.0 2.0 57 193
r 2.7913 0 2 exp 100 ------- 0 0.0 2.0 136 194
+ 2.792696 1 2 exp 100 ------- 0 1.0 2.0 59 197
- 2.792696 1 2 exp 100 ------- 0 1.0 2.0 59 197
+ 2.79622 0 2 exp 100 ------- 0 0.0 2.0 138 198
- 2.79622 0 2 exp 100 ------- 0 0.0 2.0 138 198
r 2.800276 1 2 exp 100 ------- 0 1.0 2.0 58 195
r 2.8038 0 2 exp 100 ------- 0 0.0 2.0 137 196
+ 2.805196 1 2 exp 100 ------- 0 1.0 2.0 60 199
- 2.805196 1 2 exp 100 ------- 0 1.0 2.0 60 199
+ 2.80872 0 2 exp 100 ------- 0 0.0 2.0 139 200
- 2.80872 0 2 exp 100 ------- 0 0.0 2.0 139 200
r 2.812776 1 2 exp 100 ------- 0 1.0 2.0 59 197
r 2.8163 0 2 exp 100 ------- 0 0.0 2.0 138 198
+ 2.817696 1 2 exp 100 ------- 0 1.0 2.0 61 201
- 2.817696 1 2 exp 100 ------- 0 1.0 2.0 61 201
+ 2.82122 0 2 exp 100 ------- 0 0.0 2.0 140 202
- 2.82122 0 2 exp 100 ------- 0 0.0 2.0 140 202
r 2.825276 1 2 exp 100 ------- 0 1.0 2.0 60 199
r 2.8288 0 2 exp 100 ------- 0 0.0 2.0 139 200
+ 2.830196 1 2 exp 100 ------- 0 1.0 2.0 62 203
- 2.830196 1 2 exp 100 ------- 0 1.0 2.0 62 203
+ 2.83372 0 2 exp 100 ------- 0 0.0 2.0 141 204
- 2.83372 0 2 exp 100 ------- 0 0.0 2.0 141 204
r 2.837776 1 2 exp 100 ------- 0 1.0 2.0 61 201
r 2.8413 0 2 exp 100 ------- 0 0.0 2.0 140 202
+ 2.842696 1 2 exp 100 ------- 0 1.0 2.0 63 205
- 2.842696 1 2 exp 100 ------- 0 1.0 2.0 63 205
+ 2.84622 0 2 exp 100 ------- 0 0.0 2.0 142 206
- 2.84622 0 2 exp 100 ------- 0 0.0 2.0 142 206
r 2.850276 1 2 exp 100 ------- 0 1.0 2.0 62 203
r 2.8538 0 2 exp 100 ------- 0 0.0 2.0 141 204
+ 2.855196 1 2 exp 100 ------- 0 1.0 2.0 64 207
- 2.855196 1 2 exp 100 ------- 0 1.0 2.0 64 207
+ 2.85872 0 2 exp 100 ------- 0 0.0 2.0 143 208
- 2.85872 0 2 exp 100 ------- 0 0.0 2.0 143 208
r 2.862776 1 2 exp 100 ------- 0 1.0 2.0 63 205
r 2.8663 0 2 exp 100 ------- 0 0.0 2.0 142 206
+ 2.867696 1 2 exp 100 ------- 0 1.0 2.0 65 209
- 2.867696 1 2 exp 100 ------- 0 1.0 2.0 65 209
+ 2.87122 0 2 exp 100 ------- 0 0.0 2.0 144 210
- 2.87122 0 2 exp 100 ------- 0 0.0 2.0 144 210
r 2.875276 1 2 exp 100 ------- 0 1.0 2.0 64 207
r 2.8788 0 2 exp 100 ------- 0 0.0 2.0 143 208
+ 2.880196 1 2 exp 100 ------- 0 1.0 2.0 66 211
- 2.880196 1 2 exp 100 ------- 0 1.0 2.0 66 211
+ 2.88372 0 2 exp 100 ------- 0 0.0 2.0 145 212
- 2.88372 0 2 exp 100 ------- 0 0.0 2.0 145 212
r 2.887776 1 2 exp 100 ------- 0 1.0 2.0 65 209
r 2.8913 0 2 exp 100 ------- 0 0.0 2.0 144 210
+ 2.892696 1 2 exp 100 ------- 0 1.0 2.0 67 213
- 2.892696 1 2 exp 100 ------- 0 1.0 2.0 67 213
+ 2.89622 0 2 exp 100 ------- 0 0.0 2.0 146 214
- 2.89622 0 2 exp 100 ------- 0 0.0 2.0 146 214
r 2.900276 1 2 exp 100 ------- 0 1.0 2.0 66 211
r 2.9038 0 2 exp 100 ------- 0 0.0 2.0 145 212
+ 2.905196 1 2 exp 100 ------- 0 1.0 2.0 68 215
- 2.905196 1 2 exp 100 ------- 0 1.0 2.0 68 215