+ 0.5 0 1 tcp 40 ------- 0 0.0 1.0 0 0
- 0.5 0 1 tcp 40 ------- 0 0.0 1.0 0 0
r 0.520032 0 1 tcp 40 ------- 0 0.0 1.0 0 0
+ 0.520032 1 0 ack 40 ------- 0 1.0 0.0 0 1
- 0.520032 1 0 ack 40 ------- 0 1.0 0.0 0 1
r 0.540064 1 0 ack 40 ------- 0 1.0 0.0 0 1
+ 0.540064 0 1 tcp 1040 ------- 0 0.0 1.0 1 2
- 0.540064 0 1 tcp 1040 ------- 0 0.0 1.0 1 2
+ 0.540064 0 1 tcp 1040 ------- 0 0.0 1.0 2 3
- 0.540896 0 1 tcp 1040 ------- 0 0.0 1.0 2 3
r 0.560896 0 1 tcp 1040 ------- 0 0.0 1.0 1 2
+ 0.560896 1 0 ack 40 ------- 0 1.0 0.0 1 4
- 0.560896 1 0 ack 40 ------- 0 1.0 0.0 1 4
r 0.561728 0 1 tcp 1040 ------- 0 0.0 1.0 2 3
+ 0.561728 1 0 ack 40 ------- 0 1.0 0.0 2 5
- 0.561728 1 0 ack 40 ------- 0 1.0 0.0 2 5
r 0.580928 1 0 ack 40 ------- 0 1.0 0.0 1 4
+ 0.580928 0 1 tcp 1040 ------- 0 0.0 1.0 3 6
- 0.580928 0 1 tcp 1040 ------- 0 0.0 1.0 3 6
+ 0.580928 0 1 tcp 1040 ------- 0 0.0 1.0 4 7
r 0.58176 1 0 ack 40 ------- 0 1.0 0.0 2 5
+ 0.58176 0 1 tcp 1040 ------- 0 0.0 1.0 5 8
+ 0.58176 0 1 tcp 1040 ------- 0 0.0 1.0 6 9
- 0.58176 0 1 tcp 1040 ------- 0 0.0 1.0 4 7
- 0.582592 0 1 tcp 1040 ------- 0 0.0 1.0 5 8
- 0.583424 0 1 tcp 1040 ------- 0 0.0 1.0 6 9
r 0.60176 0 1 tcp 1040 ------- 0 0.0 1.0 3 6
+ 0.60176 1 0 ack 40 ------- 0 1.0 0.0 3 10
- 0.60176 1 0 ack 40 ------- 0 1.0 0.0 3 10
r 0.602592 0 1 tcp 1040 ------- 0 0.0 1.0 4 7
+ 0.602592 1 0 ack 40 ------- 0 1.0 0.0 4 11
- 0.602592 1 0 ack 40 ------- 0 1.0 0.0 4 11
r 0.603424 0 1 tcp 1040 ------- 0 0.0 1.0 5 8
+ 0.603424 1 0 ack 40 ------- 0 1.0 0.0 5 12
- 0.603424 1 0 ack 40 ------- 0 1.0 0.0 5 12
r 0.604256 0 1 tcp 1040 ------- 0 0.0 1.0 6 9
+ 0.604256 1 0 ack 40 ------- 0 1.0 0.0 6 13
- 0.604256 1 0 ack 40 ------- 0 1.0 0.0 6 13
r 0.621792 1 0 ack 40 ------- 0 1.0 0.0 3 10
+ 0.621792 0 1 tcp 1040 ------- 0 0.0 1.0 7 14
- 0.621792 0 1 tcp 1040 ------- 0 0.0 1.0 7 14
+ 0.621792 0 1 tcp 1040 ------- 0 0.0 1.0 8 15
r 0.622624 1 0 ack 40 ------- 0 1.0 0.0 4 11
+ 0.622624 0 1 tcp 1040 ------- 0 0.0 1.0 9 16
- 0.622624 0 1 tcp 1040 ------- 0 0.0 1.0 8 15
r 0.623456 1 0 ack 40 ------- 0 1.0 0.0 5 12
+ 0.623456 0 1 tcp 1040 ------- 0 0.0 1.0 10 17
- 0.623456 0 1 tcp 1040 ------- 0 0.0 1.0 9 16
r 0.624288 1 0 ack 40 ------- 0 1.0 0.0 6 13
+ 0.624288 0 1 tcp 1040 ------- 0 0.0 1.0 11 18
- 0.624288 0 1 tcp 1040 ------- 0 0.0 1.0 10 17
- 0.62512 0 1 tcp 1040 ------- 0 0.0 1.0 11 18
r 0.642624 0 1 tcp 1040 ------- 0 0.0 1.0 7 14
+ 0.642624 1 0 ack 40 ------- 0 1.0 0.0 7 19
- 0.642624 1 0 ack 40 ------- 0 1.0 0.0 7 19
r 0.643456 0 1 tcp 1040 ------- 0 0.0 1.0 8 15
+ 0.643456 1 0 ack 40 ------- 0 1.0 0.0 8 20
- 0.643456 1 0 ack 40 ------- 0 1.0 0.0 8 20
r 0.644288 0 1 tcp 1040 ------- 0 0.0 1.0 9 16
+ 0.644288 1 0 ack 40 ------- 0 1.0 0.0 9 21
- 0.644288 1 0 ack 40 ------- 0 1.0 0.0 9 21
r 0.64512 0 1 tcp 1040 ------- 0 0.0 1.0 10 17
+ 0.64512 1 0 ack 40 ------- 0 1.0 0.0 10 22
- 0.64512 1 0 ack 40 ------- 0 1.0 0.0 10 22
r 0.645952 0 1 tcp 1040 ------- 0 0.0 1.0 11 18
+ 0.645952 1 0 ack 40 ------- 0 1.0 0.0 11 23
- 0.645952 1 0 ack 40 ------- 0 1.0 0.0 11 23
r 0.662656 1 0 ack 40 ------- 0 1.0 0.0 7 19
+ 0.662656 0 1 tcp 1040 ------- 0 0.0 1.0 12 24
- 0.662656 0 1 tcp 1040 ------- 0 0.0 1.0 12 24
r 0.663488 1 0 ack 40 ------- 0 1.0 0.0 8 20
+ 0.663488 0 1 tcp 1040 ------- 0 0.0 1.0 13 25
- 0.663488 0 1 tcp 1040 ------- 0 0.0 1.0 13 25
r 0.66432 1 0 ack 40 ------- 0 1.0 0.0 9 21
+ 0.66432 0 1 tcp 1040 ------- 0 0.0 1.0 14 26
- 0.66432 0 1 tcp 1040 ------- 0 0.0 1.0 14 26
r 0.665152 1 0 ack 40 ------- 0 1.0 0.0 10 22
+ 0.665152 0 1 tcp 1040 ------- 0 0.0 1.0 15 27
- 0.665152 0 1 tcp 1040 ------- 0 0.0 1.0 15 27
r 0.665984 1 0 ack 40 ------- 0 1.0 0.0 11 23
+ 0.665984 0 1 tcp 1040 ------- 0 0.0 1.0 16 28
- 0.665984 0 1 tcp 1040 ------- 0 0.0 1.0 16 28
r 0.683488 0 1 tcp 1040 ------- 0 0.0 1.0 12 24
+ 0.683488 1 0 ack 40 ------- 0 1.0 0.0 12 29
- 0.683488 1 0 ack 40 ------- 0 1.0 0.0 12 29
r 0.68432 0 1 tcp 1040 ------- 0 0.0 1.0 13 25
+ 0.68432 1 0 ack 40 ------- 0 1.0 0.0 13 30
- 0.68432 1 0 ack 40 ------- 0 1.0 0.0 13 30
r 0.685152 0 1 tcp 1040 ------- 0 0.0 1.0 14 26
+ 0.685152 1 0 ack 40 ------- 0 1.0 0.0 14 31
- 0.685152 1 0 ack 40 ------- 0 1.0 0.0 14 31
r 0.685984 0 1 tcp 1040 ------- 0 0.0 1.0 15 27
+ 0.685984 1 0 ack 40 ------- 0 1.0 0.0 15 32
- 0.685984 1 0 ack 40 ------- 0 1.0 0.0 15 32
r 0.686816 0 1 tcp 1040 ------- 0 0.0 1.0 16 28
+ 0.686816 1 0 ack 40 ------- 0 1.0 0.0 16 33
- 0.686816 1 0 ack 40 ------- 0 1.0 0.0 16 33
r 0.70352 1 0 ack 40 ------- 0 1.0 0.0 12 29
+ 0.70352 0 1 tcp 1040 ------- 0 0.0 1.0 17 34
- 0.70352 0 1 tcp 1040 ------- 0 0.0 1.0 17 34
r 0.704352 1 0 ack 40 ------- 0 1.0 0.0 13 30
+ 0.704352 0 1 tcp 1040 ------- 0 0.0 1.0 18 35
- 0.704352 0 1 tcp 1040 ------- 0 0.0 1.0 18 35
r 0.705184 1 0 ack 40 ------- 0 1.0 0.0 14 31
+ 0.705184 0 1 tcp 1040 ------- 0 0.0 1.0 19 36
- 0.705184 0 1 tcp 1040 ------- 0 0.0 1.0 19 36
r 0.706016 1 0 ack 40 ------- 0 1.0 0.0 15 32
+ 0.706016 0 1 tcp 1040 ------- 0 0.0 1.0 20 37
- 0.706016 0 1 tcp 1040 ------- 0 0.0 1.0 20 37
r 0.706848 1 0 ack 40 ------- 0 1.0 0.0 16 33
+ 0.706848 0 1 tcp 1040 ------- 0 0.0 1.0 21 38
- 0.706848 0 1 tcp 1040 ------- 0 0.0 1.0 21 38
r 0.724352 0 1 tcp 1040 ------- 0 0.0 1.0 17 34
+ 0.724352 1 0 ack 40 ------- 0 1.0 0.0 17 39
- 0.724352 1 0 ack 40 ------- 0 1.0 0.0 17 39
r 0.725184 0 1 tcp 1040 ------- 0 0.0 1.0 18 35
+ 0.725184 1 0 ack 40 ------- 0 1.0 0.0 18 40
- 0.725184 1 0 ack 40 ------- 0 1.0 0.0 18 40
r 0.726016 0 1 tcp 1040 ------- 0 0.0 1.0 19 36
+ 0.726016 1 0 ack 40 ------- 0 1.0 0.0 19 41
- 0.726016 1 0 ack 40 ------- 0 1.0 0.0 19 41
r 0.726848 0 1 tcp 1040 ------- 0 0.0 1.0 20 37
+ 0.726848 1 0 ack 40 ------- 0 1.0 0.0 20 42
- 0.726848 1 0 ack 40 ------- 0 1.0 0.0 20 42
r 0.72768 0 1 tcp 1040 ------- 0 0.0 1.0 21 38
+ 0.72768 1 0 ack 40 ------- 0 1.0 0.0 21 43
- 0.72768 1 0 ack 40 ------- 0 1.0 0.0 21 43
r 0.744384 1 0 ack 40 ------- 0 1.0 0.0 17 39
+ 0.744384 0 1 tcp 1040 ------- 0 0.0 1.0 22 44
- 0.744384 0 1 tcp 1040 ------- 0 0.0 1.0 22 44
r 0.745216 1 0 ack 40 ------- 0 1.0 0.0 18 40
+ 0.745216 0 1 tcp 1040 ------- 0 0.0 1.0 23 45
- 0.745216 0 1 tcp 1040 ------- 0 0.0 1.0 23 45
r 0.746048 1 0 ack 40 ------- 0 1.0 0.0 19 41
+ 0.746048 0 1 tcp 1040 ------- 0 0.0 1.0 24 46
- 0.746048 0 1 tcp 1040 ------- 0 0.0 1.0 24 46
r 0.74688 1 0 ack 40 ------- 0 1.0 0.0 20 42
+ 0.74688 0 1 tcp 1040 ------- 0 0.0 1.0 25 47
- 0.74688 0 1 tcp 1040 ------- 0 0.0 1.0 25 47
r 0.747712 1 0 ack 40 ------- 0 1.0 0.0 21 43
+ 0.747712 0 1 tcp 1040 ------- 0 0.0 1.0 26 48
- 0.747712 0 1 tcp 1040 ------- 0 0.0 1.0 26 48
r 0.765216 0 1 tcp 1040 ------- 0 0.0 1.0 22 44
+ 0.765216 1 0 ack 40 ------- 0 1.0 0.0 22 49
- 0.765216 1 0 ack 40 ------- 0 1.0 0.0 22 49
r 0.766048 0 1 tcp 1040 ------- 0 0.0 1.0 23 45
+ 0.766048 1 0 ack 40 ------- 0 1.0 0.0 23 50
- 0.766048 1 0 ack 40 ------- 0 1.0 0.0 23 50
r 0.76688 0 1 tcp 1040 ------- 0 0.0 1.0 24 46
+ 0.76688 1 0 ack 40 ------- 0 1.0 0.0 24 51
- 0.76688 1 0 ack 40 ------- 0 1.0 0.0 24 51
r 0.767712 0 1 tcp 1040 ------- 0 0.0 1.0 25 47
+ 0.767712 1 0 ack 40 ------- 0 1.0 0.0 25 52
- 0.767712 1 0 ack 40 ------- 0 1.0 0.0 25 52
r 0.768544 0 1 tcp 1040 ------- 0 0.0 1.0 26 48
+ 0.768544 1 0 ack 40 ------- 0 1.0 0.0 26 53
- 0.768544 1 0 ack 40 ------- 0 1.0 0.0 26 53
r 0.785248 1 0 ack 40 ------- 0 1.0 0.0 22 49
+ 0.785248 0 1 tcp 1040 ------- 0 0.0 1.0 27 54
- 0.785248 0 1 tcp 1040 ------- 0 0.0 1.0 27 54
r 0.78608 1 0 ack 40 ------- 0 1.0 0.0 23 50
+ 0.78608 0 1 tcp 1040 ------- 0 0.0 1.0 28 55
- 0.78608 0 1 tcp 1040 ------- 0 0.0 1.0 28 55
r 0.786912 1 0 ack 40 ------- 0 1.0 0.0 24 51
+ 0.786912 0 1 tcp 1040 ------- 0 0.0 1.0 29 56
- 0.786912 0 1 tcp 1040 ------- 0 0.0 1.0 29 56
r 0.787744 1 0 ack 40 ------- 0 1.0 0.0 25 52
+ 0.787744 0 1 tcp 1040 ------- 0 0.0 1.0 30 57
- 0.787744 0 1 tcp 1040 ------- 0 0.0 1.0 30 57
r 0.788576 1 0 ack 40 ------- 0 1.0 0.0 26 53
+ 0.788576 0 1 tcp 1040 ------- 0 0.0 1.0 31 58
- 0.788576 0 1 tcp 1040 ------- 0 0.0 1.0 31 58
r 0.80608 0 1 tcp 1040 ------- 0 0.0 1.0 27 54
+ 0.80608 1 0 ack 40 ------- 0 1.0 0.0 27 59
- 0.80608 1 0 ack 40 ------- 0 1.0 0.0 27 59
r 0.806912 0 1 tcp 1040 ------- 0 0.0 1.0 28 55
+ 0.806912 1 0 ack 40 ------- 0 1.0 0.0 28 60
- 0.806912 1 0 ack 40 ------- 0 1.0 0.0 28 60
r 0.807744 0 1 tcp 1040 ------- 0 0.0 1.0 29 56
+ 0.807744 1 0 ack 40 ------- 0 1.0 0.0 29 61
- 0.807744 1 0 ack 40 ------- 0 1.0 0.0 29 61
r 0.808576 0 1 tcp 1040 ------- 0 0.0 1.0 30 57
+ 0.808576 1 0 ack 40 ------- 0 1.0 0.0 30 62
- 0.808576 1 0 ack 40 ------- 0 1.0 0.0 30 62
r 0.809408 0 1 tcp 1040 ------- 0 0.0 1.0 31 58
+ 0.809408 1 0 ack 40 ------- 0 1.0 0.0 31 63
- 0.809408 1 0 ack 40 ------- 0 1.0 0.0 31 63
r 0.826112 1 0 ack 40 ------- 0 1.0 0.0 27 59
+ 0.826112 0 1 tcp 1040 ------- 0 0.0 1.0 32 64
- 0.826112 0 1 tcp 1040 ------- 0 0.0 1.0 32 64
r 0.826944 1 0 ack 40 ------- 0 1.0 0.0 28 60
+ 0.826944 0 1 tcp 1040 ------- 0 0.0 1.0 33 65
- 0.826944 0 1 tcp 1040 ------- 0 0.0 1.0 33 65
r 0.827776 1 0 ack 40 ------- 0 1.0 0.0 29 61
+ 0.827776 0 1 tcp 1040 ------- 0 0.0 1.0 34 66
- 0.827776 0 1 tcp 1040 ------- 0 0.0 1.0 34 66
r 0.828608 1 0 ack 40 ------- 0 1.0 0.0 30 62
+ 0.828608 0 1 tcp 1040 ------- 0 0.0 1.0 35 67
- 0.828608 0 1 tcp 1040 ------- 0 0.0 1.0 35 67
r 0.82944 1 0 ack 40 ------- 0 1.0 0.0 31 63
+ 0.82944 0 1 tcp 1040 ------- 0 0.0 1.0 36 68
- 0.82944 0 1 tcp 1040 ------- 0 0.0 1.0 36 68
r 0.846944 0 1 tcp 1040 ------- 0 0.0 1.0 32 64
+ 0.846944 1 0 ack 40 ------- 0 1.0 0.0 32 69
- 0.846944 1 0 ack 40 ------- 0 1.0 0.0 32 69
r 0.847776 0 1 tcp 1040 ------- 0 0.0 1.0 33 65
+ 0.847776 1 0 ack 40 ------- 0 1.0 0.0 33 70
- 0.847776 1 0 ack 40 ------- 0 1.0 0.0 33 70
r 0.848608 0 1 tcp 1040 ------- 0 0.0 1.0 34 66
+ 0.848608 1 0 ack 40 ------- 0 1.0 0.0 34 71
- 0.848608 1 0 ack 40 ------- 0 1.0 0.0 34 71
r 0.84944 0 1 tcp 1040 ------- 0 0.0 1.0 35 67
+ 0.84944 1 0 ack 40 ------- 0 1.0 0.0 35 72
- 0.84944 1 0 ack 40 ------- 0 1.0 0.0 35 72
r 0.850272 0 1 tcp 1040 ------- 0 0.0 1.0 36 68
+ 0.850272 1 0 ack 40 ------- 0 1.0 0.0 36 73
- 0.850272 1 0 ack 40 ------- 0 1.0 0.0 36 73
r 0.866976 1 0 ack 40 ------- 0 1.0 0.0 32 69
+ 0.866976 0 1 tcp 1040 ------- 0 0.0 1.0 37 74
- 0.866976 0 1 tcp 1040 ------- 0 0.0 1.0 37 74
r 0.867808 1 0 ack 40 ------- 0 1.0 0.0 33 70
+ 0.867808 0 1 tcp 1040 ------- 0 0.0 1.0 38 75
- 0.867808 0 1 tcp 1040 ------- 0 0.0 1.0 38 75
r 0.86864 1 0 ack 40 ------- 0 1.0 0.0 34 71
+ 0.86864 0 1 tcp 1040 ------- 0 0.0 1.0 39 76
- 0.86864 0 1 tcp 1040 ------- 0 0.0 1.0 39 76
r 0.869472 1 0 ack 40 ------- 0 1.0 0.0 35 72
+ 0.869472 0 1 tcp 1040 ------- 0 0.0 1.0 40 77
- 0.869472 0 1 tcp 1040 ------- 0 0.0 1.0 40 77
r 0.870304 1 0 ack 40 ------- 0 1.0 0.0 36 73
+ 0.870304 0 1 tcp 1040 ------- 0 0.0 1.0 41 78
- 0.870304 0 1 tcp 1040 ------- 0 0.0 1.0 41 78
r 0.887808 0 1 tcp 1040 ------- 0 0.0 1.0 37 74
+ 0.887808 1 0 ack 40 ------- 0 1.0 0.0 37 79
- 0.887808 1 0 ack 40 ------- 0 1.0 0.0 37 79
r 0.88864 0 1 tcp 1040 ------- 0 0.0 1.0 38 75
+ 0.88864 1 0 ack 40 ------- 0 1.0 0.0 38 80
- 0.88864 1 0 ack 40 ------- 0 1.0 0.0 38 80
r 0.889472 0 1 tcp 1040 ------- 0 0.0 1.0 39 76
+ 0.889472 1 0 ack 40 ------- 0 1.0 0.0 39 81
- 0.889472 1 0 ack 40 ------- 0 1.0 0.0 39 81
r 0.890304 0 1 tcp 1040 ------- 0 0.0 1.0 40 77
+ 0.890304 1 0 ack 40 ------- 0 1.0 0.0 40 82
- 0.890304 1 0 ack 40 ------- 0 1.0 0.0 40 82
r 0.891136 0 1 tcp 1040 ------- 0 0.0 1.0 41 78
+ 0.891136 1 0 ack 40 ------- 0 1.0 0.0 41 83
- 0.891136 1 0 ack 40 ------- 0 1.0 0.0 41 83
r 0.90784 1 0 ack 40 ------- 0 1.0 0.0 37 79
+ 0.90784 0 1 tcp 1040 ------- 0 0.0 1.0 42 84
- 0.90784 0 1 tcp 1040 ------- 0 0.0 1.0 42 84
r 0.908672 1 0 ack 40 ------- 0 1.0 0.0 38 80
+ 0.908672 0 1 tcp 1040 ------- 0 0.0 1.0 43 85
- 0.908672 0 1 tcp 1040 ------- 0 0.0 1.0 43 85
r 0.909504 1 0 ack 40 ------- 0 1.0 0.0 39 81
+ 0.909504 0 1 tcp 1040 ------- 0 0.0 1.0 44 86
- 0.909504 0 1 tcp 1040 ------- 0 0.0 1.0 44 86
r 0.910336 1 0 ack 40 ------- 0 1.0 0.0 40 82
+ 0.910336 0 1 tcp 1040 ------- 0 0.0 1.0 45 87
- 0.910336 0 1 tcp 1040 ------- 0 0.0 1.0 45 87
r 0.911168 1 0 ack 40 ------- 0 1.0 0.0 41 83
+ 0.911168 0 1 tcp 1040 ------- 0 0.0 1.0 46 88
- 0.911168 0 1 tcp 1040 ------- 0 0.0 1.0 46 88
r 0.928672 0 1 tcp 1040 ------- 0 0.0 1.0 42 84
+ 0.928672 1 0 ack 40 ------- 0 1.0 0.0 42 89
- 0.928672 1 0 ack 40 ------- 0 1.0 0.0 42 89
r 0.929504 0 1 tcp 1040 ------- 0 0.0 1.0 43 85
+ 0.929504 1 0 ack 40 ------- 0 1.0 0.0 43 90
- 0.929504 1 0 ack 40 ------- 0 1.0 0.0 43 90
r 0.930336 0 1 tcp 1040 ------- 0 0.0 1.0 44 86
+ 0.930336 1 0 ack 40 ------- 0 1.0 0.0 44 91
- 0.930336 1 0 ack 40 ------- 0 1.0 0.0 44 91
r 0.931168 0 1 tcp 1040 ------- 0 0.0 1.0 45 87
+ 0.931168 1 0 ack 40 ------- 0 1.0 0.0 45 92
- 0.931168 1 0 ack 40 ------- 0 1.0 0.0 45 92
r 0.932 0 1 tcp 1040 ------- 0 0.0 1.0 46 88
+ 0.932 1 0 ack 40 ------- 0 1.0 0.0 46 93
- 0.932 1 0 ack 40 ------- 0 1.0 0.0 46 93
r 0.948704 1 0 ack 40 ------- 0 1.0 0.0 42 89
+ 0.948704 0 1 tcp 1040 ------- 0 0.0 1.0 47 94
- 0.948704 0 1 tcp 1040 ------- 0 0.0 1.0 47 94
r 0.949536 1 0 ack 40 ------- 0 1.0 0.0 43 90
+ 0.949536 0 1 tcp 1040 ------- 0 0.0 1.0 48 95
- 0.949536 0 1 tcp 1040 ------- 0 0.0 1.0 48 95
r 0.950368 1 0 ack 40 ------- 0 1.0 0.0 44 91
+ 0.950368 0 1 tcp 1040 ------- 0 0.0 1.0 49 96
- 0.950368 0 1 tcp 1040 ------- 0 0.0 1.0 49 96
r 0.9512 1 0 ack 40 ------- 0 1.0 0.0 45 92
+ 0.9512 0 1 tcp 1040 ------- 0 0.0 1.0 50 97
- 0.9512 0 1 tcp 1040 ------- 0 0.0 1.0 50 97
r 0.952032 1 0 ack 40 ------- 0 1.0 0.0 46 93
+ 0.952032 0 1 tcp 1040 ------- 0 0.0 1.0 51 98
- 0.952032 0 1 tcp 1040 ------- 0 0.0 1.0 51 98
r 0.969536 0 1 tcp 1040 ------- 0 0.0 1.0 47 94
+ 0.969536 1 0 ack 40 ------- 0 1.0 0.0 47 99
- 0.969536 1 0 ack 40 ------- 0 1.0 0.0 47 99
r 0.970368 0 1 tcp 1040 ------- 0 0.0 1.0 48 95
+ 0.970368 1 0 ack 40 ------- 0 1.0 0.0 48 100
- 0.970368 1 0 ack 40 ------- 0 1.0 0.0 48 100
r 0.9712 0 1 tcp 1040 ------- 0 0.0 1.0 49 96
+ 0.9712 1 0 ack 40 ------- 0 1.0 0.0 49 101
- 0.9712 1 0 ack 40 ------- 0 1.0 0.0 49 101
r 0.972032 0 1 tcp 1040 ------- 0 0.0 1.0 50 97
+ 0.972032 1 0 ack 40 ------- 0 1.0 0.0 50 102
- 0.972032 1 0 ack 40 ------- 0 1.0 0.0 50 102
r 0.972864 0 1 tcp 1040 ------- 0 0.0 1.0 51 98
+ 0.972864 1 0 ack 40 ------- 0 1.0 0.0 51 103
- 0.972864 1 0 ack 40 ------- 0 1.0 0.0 51 103
r 0.989568 1 0 ack 40 ------- 0 1.0 0.0 47 99
+ 0.989568 0 1 tcp 1040 ------- 0 0.0 1.0 52 104
- 0.989568 0 1 tcp 1040 ------- 0 0.0 1.0 52 104
r 0.9904 1 0 ack 40 ------- 0 1.0 0.0 48 100
+ 0.9904 0 1 tcp 1040 ------- 0 0.0 1.0 53 105
- 0.9904 0 1 tcp 1040 ------- 0 0.0 1.0 53 105
r 0.991232 1 0 ack 40 ------- 0 1.0 0.0 49 101
+ 0.991232 0 1 tcp 1040 ------- 0 0.0 1.0 54 106
- 0.991232 0 1 tcp 1040 ------- 0 0.0 1.0 54 106
r 0.992064 1 0 ack 40 ------- 0 1.0 0.0 50 102
+ 0.992064 0 1 tcp 1040 ------- 0 0.0 1.0 55 107
- 0.992064 0 1 tcp 1040 ------- 0 0.0 1.0 55 107
r 0.992896 1 0 ack 40 ------- 0 1.0 0.0 51 103
+ 0.992896 0 1 tcp 1040 ------- 0 0.0 1.0 56 108
- 0.992896 0 1 tcp 1040 ------- 0 0.0 1.0 56 108
r 1.0104 0 1 tcp 1040 ------- 0 0.0 1.0 52 104
+ 1.0104 1 0 ack 40 ------- 0 1.0 0.0 52 109
- 1.0104 1 0 ack 40 ------- 0 1.0 0.0 52 109
r 1.011232 0 1 tcp 1040 ------- 0 0.0 1.0 53 105
+ 1.011232 1 0 ack 40 ------- 0 1.0 0.0 53 110
- 1.011232 1 0 ack 40 ------- 0 1.0 0.0 53 110
r 1.012064 0 1 tcp 1040 ------- 0 0.0 1.0 54 106
+ 1.012064 1 0 ack 40 ------- 0 1.0 0.0 54 111
- 1.012064 1 0 ack 40 ------- 0 1.0 0.0 54 111
r 1.012896 0 1 tcp 1040 ------- 0 0.0 1.0 55 107
+ 1.012896 1 0 ack 40 ------- 0 1.0 0.0 55 112
- 1.012896 1 0 ack 40 ------- 0 1.0 0.0 55 112
r 1.013728 0 1 tcp 1040 ------- 0 0.0 1.0 56 108
+ 1.013728 1 0 ack 40 ------- 0 1.0 0.0 56 113
- 1.013728 1 0 ack 40 ------- 0 1.0 0.0 56 113
r 1.030432 1 0 ack 40 ------- 0 1.0 0.0 52 109
+ 1.030432 0 1 tcp 1040 ------- 0 0.0 1.0 57 114
- 1.030432 0 1 tcp 1040 ------- 0 0.0 1.0 57 114
r 1.031264 1 0 ack 40 ------- 0 1.0 0.0 53 110
+ 1.031264 0 1 tcp 1040 ------- 0 0.0 1.0 58 115
- 1.031264 0 1 tcp 1040 ------- 0 0.0 1.0 58 115
r 1.032096 1 0 ack 40 ------- 0 1.0 0.0 54 111
+ 1.032096 0 1 tcp 1040 ------- 0 0.0 1.0 59 116
- 1.032096 0 1 tcp 1040 ------- 0 0.0 1.0 59 116
r 1.032928 1 0 ack 40 ------- 0 1.0 0.0 55 112
+ 1.032928 0 1 tcp 1040 ------- 0 0.0 1.0 60 117
- 1.032928 0 1 tcp 1040 ------- 0 0.0 1.0 60 117
r 1.03376 1 0 ack 40 ------- 0 1.0 0.0 56 113
+ 1.03376 0 1 tcp 1040 ------- 0 0.0 1.0 61 118
- 1.03376 0 1 tcp 1040 ------- 0 0.0 1.0 61 118
r 1.051264 0 1 tcp 1040 ------- 0 0.0 1.0 57 114
+ 1.051264 1 0 ack 40 ------- 0 1.0 0.0 57 119
- 1.051264 1 0 ack 40 ------- 0 1.0 0.0 57 119
r 1.052096 0 1 tcp 1040 ------- 0 0.0 1.0 58 115
+ 1.052096 1 0 ack 40 ------- 0 1.0 0.0 58 120
- 1.052096 1 0 ack 40 ------- 0 1.0 0.0 58 120
r 1.052928 0 1 tcp 1040 ------- 0 0.0 1.0 59 116
+ 1.052928 1 0 ack 40 ------- 0 1.0 0.0 59 121
- 1.052928 1 0 ack 40 ------- 0 1.0 0.0 59 121
r 1.05376 0 1 tcp 1040 ------- 0 0.0 1.0 60 117
+ 1.05376 1 0 ack 40 ------- 0 1.0 0.0 60 122
- 1.05376 1 0 ack 40 ------- 0 1.0 0.0 60 122
r 1.054592 0 1 tcp 1040 ------- 0 0.0 1.0 61 118
+ 1.054592 1 0 ack 40 ------- 0 1.0 0.0 61 123
- 1.054592 1 0 ack 40 ------- 0 1.0 0.0 61 123
r 1.071296 1 0 ack 40 ------- 0 1.0 0.0 57 119
+ 1.071296 0 1 tcp 1040 ------- 0 0.0 1.0 62 124
- 1.071296 0 1 tcp 1040 ------- 0 0.0 1.0 62 124
r 1.072128 1 0 ack 40 ------- 0 1.0 0.0 58 120
+ 1.072128 0 1 tcp 1040 ------- 0 0.0 1.0 63 125
- 1.072128 0 1 tcp 1040 ------- 0 0.0 1.0 63 125
r 1.07296 1 0 ack 40 ------- 0 1.0 0.0 59 121
+ 1.07296 0 1 tcp 1040 ------- 0 0.0 1.0 64 126
- 1.07296 0 1 tcp 1040 ------- 0 0.0 1.0 64 126
r 1.073792 1 0 ack 40 ------- 0 1.0 0.0 60 122
+ 1.073792 0 1 tcp 1040 ------- 0 0.0 1.0 65 127
- 1.073792 0 1 tcp 1040 ------- 0 0.0 1.0 65 127
r 1.074624 1 0 ack 40 ------- 0 1.0 0.0 61 123
+ 1.074624 0 1 tcp 1040 ------- 0 0.0 1.0 66 128
- 1.074624 0 1 tcp 1040 ------- 0 0.0 1.0 66 128
r 1.092128 0 1 tcp 1040 ------- 0 0.0 1.0 62 124
+ 1.092128 1 0 ack 40 ------- 0 1.0 0.0 62 129
- 1.092128 1 0 ack 40 ------- 0 1.0 0.0 62 129
r 1.09296 0 1 tcp 1040 ------- 0 0.0 1.0 63 125
+ 1.09296 1 0 ack 40 ------- 0 1.0 0.0 63 130
- 1.09296 1 0 ack 40 ------- 0 1.0 0.0 63 130
r 1.093792 0 1 tcp 1040 ------- 0 0.0 1.0 64 126
+ 1.093792 1 0 ack 40 ------- 0 1.0 0.0 64 131
- 1.093792 1 0 ack 40 ------- 0 1.0 0.0 64 131
r 1.094624 0 1 tcp 1040 ------- 0 0.0 1.0 65 127
+ 1.094624 1 0 ack 40 ------- 0 1.0 0.0 65 132
- 1.094624 1 0 ack 40 ------- 0 1.0 0.0 65 132
r 1.095456 0 1 tcp 1040 ------- 0 0.0 1.0 66 128
+ 1.095456 1 0 ack 40 ------- 0 1.0 0.0 66 133
- 1.095456 1 0 ack 40 ------- 0 1.0 0.0 66 133
r 1.11216 1 0 ack 40 ------- 0 1.0 0.0 62 129
+ 1.11216 0 1 tcp 1040 ------- 0 0.0 1.0 67 134
- 1.11216 0 1 tcp 1040 ------- 0 0.0 1.0 67 134
r 1.112992 1 0 ack 40 ------- 0 1.0 0.0 63 130
+ 1.112992 0 1 tcp 1040 ------- 0 0.0 1.0 68 135
- 1.112992 0 1 tcp 1040 ------- 0 0.0 1.0 68 135
r 1.113824 1 0 ack 40 ------- 0 1.0 0.0 64 131
+ 1.113824 0 1 tcp 1040 ------- 0 0.0 1.0 69 136
- 1.113824 0 1 tcp 1040 ------- 0 0.0 1.0 69 136
r 1.114656 1 0 ack 40 ------- 0 1.0 0.0 65 132
+ 1.114656 0 1 tcp 1040 ------- 0 0.0 1.0 70 137
- 1.114656 0 1 tcp 1040 ------- 0 0.0 1.0 70 137
r 1.115488 1 0 ack 40 ------- 0 1.0 0.0 66 133
+ 1.115488 0 1 tcp 1040 ------- 0 0.0 1.0 71 138
- 1.115488 0 1 tcp 1040 ------- 0 0.0 1.0 71 138
r 1.132992 0 1 tcp 1040 ------- 0 0.0 1.0 67 134
+ 1.132992 1 0 ack 40 ------- 0 1.0 0.0 67 139
- 1.132992 1 0 ack 40 ------- 0 1.0 0.0 67 139
r 1.133824 0 1 tcp 1040 ------- 0 0.0 1.0 68 135
+ 1.133824 1 0 ack 40 ------- 0 1.0 0.0 68 140
- 1.133824 1 0 ack 40 ------- 0 1.0 0.0 68 140
r 1.134656 0 1 tcp 1040 ------- 0 0.0 1.0 69 136
+ 1.134656 1 0 ack 40 ------- 0 1.0 0.0 69 141
- 1.134656 1 0 ack 40 ------- 0 1.0 0.0 69 141
r 1.135488 0 1 tcp 1040 ------- 0 0.0 1.0 70 137
+ 1.135488 1 0 ack 40 ------- 0 1.0 0.0 70 142
- 1.135488 1 0 ack 40 ------- 0 1.0 0.0 70 142
r 1.13632 0 1 tcp 1040 ------- 0 0.0 1.0 71 138
+ 1.13632 1 0 ack 40 ------- 0 1.0 0.0 71 143
- 1.13632 1 0 ack 40 ------- 0 1.0 0.0 71 143
r 1.153024 1 0 ack 40 ------- 0 1.0 0.0 67 139
+ 1.153024 0 1 tcp 1040 ------- 0 0.0 1.0 72 144
- 1.153024 0 1 tcp 1040 ------- 0 0.0 1.0 72 144
r 1.153856 1 0 ack 40 ------- 0 1.0 0.0 68 140
+ 1.153856 0 1 tcp 1040 ------- 0 0.0 1.0 73 145
- 1.153856 0 1 tcp 1040 ------- 0 0.0 1.0 73 145
r 1.154688 1 0 ack 40 ------- 0 1.0 0.0 69 141
+ 1.154688 0 1 tcp 1040 ------- 0 0.0 1.0 74 146
- 1.154688 0 1 tcp 1040 ------- 0 0.0 1.0 74 146
r 1.15552 1 0 ack 40 ------- 0 1.0 0.0 70 142
+ 1.15552 0 1 tcp 1040 ------- 0 0.0 1.0 75 147
- 1.15552 0 1 tcp 1040 ------- 0 0.0 1.0 75 147
r 1.156352 1 0 ack 40 ------- 0 1.0 0.0 71 143
+ 1.156352 0 1 tcp 1040 ------- 0 0.0 1.0 76 148
- 1.156352 0 1 tcp 1040 ------- 0 0.0 1.0 76 148
r 1.173856 0 1 tcp 1040 ------- 0 0.0 1.0 72 144
+ 1.173856 1 0 ack 40 ------- 0 1.0 0.0 72 149
- 1.173856 1 0 ack 40 ------- 0 1.0 0.0 72 149
r 1.174688 0 1 tcp 1040 ------- 0 0.0 1.0 73 145
+ 1.174688 1 0 ack 40 ------- 0 1.0 0.0 73 150
- 1.174688 1 0 ack 40 ------- 0 1.0 0.0 73 150
r 1.17552 0 1 tcp 1040 ------- 0 0.0 1.0 74 146
+ 1.17552 1 0 ack 40 ------- 0 1.0 0.0 74 151
- 1.17552 1 0 ack 40 ------- 0 1.0 0.0 74 151
r 1.176352 0 1 tcp 1040 ------- 0 0.0 1.0 75 147
+ 1.176352 1 0 ack 40 ------- 0 1.0 0.0 75 152
- 1.176352 1 0 ack 40 ------- 0 1.0 0.0 75 152
r 1.177184 0 1 tcp 1040 ------- 0 0.0 1.0 76 148
+ 1.177184 1 0 ack 40 ------- 0 1.0 0.0 76 153
- 1.177184 1 0 ack 40 ------- 0 1.0 0.0 76 153
r 1.193888 1 0 ack 40 ------- 0 1.0 0.0 72 149
+ 1.193888 0 1 tcp 1040 ------- 0 0.0 1.0 77 154
- 1.193888 0 1 tcp 1040 ------- 0 0.0 1.0 77 154
r 1.19472 1 0 ack 40 ------- 0 1.0 0.0 73 150
+ 1.19472 0 1 tcp 1040 ------- 0 0.0 1.0 78 155
- 1.19472 0 1 tcp 1040 ------- 0 0.0 1.0 78 155
r 1.195552 1 0 ack 40 ------- 0 1.0 0.0 74 151
+ 1.195552 0 1 tcp 1040 ------- 0 0.0 1.0 79 156
- 1.195552 0 1 tcp 1040 ------- 0 0.0 1.0 79 156
r 1.196384 1 0 ack 40 ------- 0 1.0 0.0 75 152
+ 1.196384 0 1 tcp 1040 ------- 0 0.0 1.0 80 157
- 1.196384 0 1 tcp 1040 ------- 0 0.0 1.0 80 157
r 1.197216 1 0 ack 40 ------- 0 1.0 0.0 76 153
+ 1.197216 0 1 tcp 1040 ------- 0 0.0 1.0 81 158
- 1.197216 0 1 tcp 1040 ------- 0 0.0 1.0 81 158
r 1.21472 0 1 tcp 1040 ------- 0 0.0 1.0 77 154
+ 1.21472 1 0 ack 40 ------- 0 1.0 0.0 77 159
- 1.21472 1 0 ack 40 ------- 0 1.0 0.0 77 159
r 1.215552 0 1 tcp 1040 ------- 0 0.0 1.0 78 155
+ 1.215552 1 0 ack 40 ------- 0 1.0 0.0 78 160
- 1.215552 1 0 ack 40 ------- 0 1.0 0.0 78 160
r 1.216384 0 1 tcp 1040 ------- 0 0.0 1.0 79 156
+ 1.216384 1 0 ack 40 ------- 0 1.0 0.0 79 161
- 1.216384 1 0 ack 40 ------- 0 1.0 0.0 79 161
r 1.217216 0 1 tcp 1040 ------- 0 0.0 1.0 80 157
+ 1.217216 1 0 ack 40 ------- 0 1.0 0.0 80 162
- 1.217216 1 0 ack 40 ------- 0 1.0 0.0 80 162
r 1.218048 0 1 tcp 1040 ------- 0 0.0 1.0 81 158
+ 1.218048 1 0 ack 40 ------- 0 1.0 0.0 81 163
- 1.218048 1 0 ack 40 ------- 0 1.0 0.0 81 163
r 1.234752 1 0 ack 40 ------- 0 1.0 0.0 77 159
+ 1.234752 0 1 tcp 1040 ------- 0 0.0 1.0 82 164
- 1.234752 0 1 tcp 1040 ------- 0 0.0 1.0 82 164
r 1.235584 1 0 ack 40 ------- 0 1.0 0.0 78 160
+ 1.235584 0 1 tcp 1040 ------- 0 0.0 1.0 83 165
- 1.235584 0 1 tcp 1040 ------- 0 0.0 1.0 83 165
r 1.236416 1 0 ack 40 ------- 0 1.0 0.0 79 161
+ 1.236416 0 1 tcp 1040 ------- 0 0.0 1.0 84 166
- 1.236416 0 1 tcp 1040 ------- 0 0.0 1.0 84 166
r 1.237248 1 0 ack 40 ------- 0 1.0 0.0 80 162
+ 1.237248 0 1 tcp 1040 ------- 0 0.0 1.0 85 167
- 1.237248 0 1 tcp 1040 ------- 0 0.0 1.0 85 167
r 1.23808 1 0 ack 40 ------- 0 1.0 0.0 81 163
+ 1.23808 0 1 tcp 1040 ------- 0 0.0 1.0 86 168
- 1.23808 0 1 tcp 1040 ------- 0 0.0 1.0 86 168
r 1.255584 0 1 tcp 1040 ------- 0 0.0 1.0 82 164
+ 1.255584 1 0 ack 40 ------- 0 1.0 0.0 82 169
- 1.255584 1 0 ack 40 ------- 0 1.0 0.0 82 169
r 1.256416 0 1 tcp 1040 ------- 0 0.0 1.0 83 165
+ 1.256416 1 0 ack 40 ------- 0 1.0 0.0 83 170
- 1.256416 1 0 ack 40 ------- 0 1.0 0.0 83 170
r 1.257248 0 1 tcp 1040 ------- 0 0.0 1.0 84 166
+ 1.257248 1 0 ack 40 ------- 0 1.0 0.0 84 171
- 1.257248 1 0 ack 40 ------- 0 1.0 0.0 84 171
r 1.25808 0 1 tcp 1040 ------- 0 0.0 1.0 85 167
+ 1.25808 1 0 ack 40 ------- 0 1.0 0.0 85 172
- 1.25808 1 0 ack 40 ------- 0 1.0 0.0 85 172
r 1.258912 0 1 tcp 1040 ------- 0 0.0 1.0 86 168
+ 1.258912 1 0 ack 40 ------- 0 1.0 0.0 86 173
- 1.258912 1 0 ack 40 ------- 0 1.0 0.0 86 173
r 1.275616 1 0 ack 40 ------- 0 1.0 0.0 82 169
+ 1.275616 0 1 tcp 1040 ------- 0 0.0 1.0 87 174
- 1.275616 0 1 tcp 1040 ------- 0 0.0 1.0 87 174
r 1.276448 1 0 ack 40 ------- 0 1.0 0.0 83 170
+ 1.276448 0 1 tcp 1040 ------- 0 0.0 1.0 88 175
- 1.276448 0 1 tcp 1040 ------- 0 0.0 1.0 88 175
r 1.27728 1 0 ack 40 ------- 0 1.0 0.0 84 171
+ 1.27728 0 1 tcp 1040 ------- 0 0.0 1.0 89 176
- 1.27728 0 1 tcp 1040 ------- 0 0.0 1.0 89 176
r 1.278112 1 0 ack 40 ------- 0 1.0 0.0 85 172
+ 1.278112 0 1 tcp 1040 ------- 0 0.0 1.0 90 177
- 1.278112 0 1 tcp 1040 ------- 0 0.0 1.0 90 177
r 1.278944 1 0 ack 40 ------- 0 1.0 0.0 86 173
+ 1.278944 0 1 tcp 1040 ------- 0 0.0 1.0 91 178
- 1.278944 0 1 tcp 1040 ------- 0 0.0 1.0 91 178
r 1.296448 0 1 tcp 1040 ------- 0 0.0 1.0 87 174
+ 1.296448 1 0 ack 40 ------- 0 1.0 0.0 87 179
- 1.296448 1 0 ack 40 ------- 0 1.0 0.0 87 179
r 1.29728 0 1 tcp 1040 ------- 0 0.0 1.0 88 175
+ 1.29728 1 0 ack 40 ------- 0 1.0 0.0 88 180
- 1.29728 1 0 ack 40 ------- 0 1.0 0.0 88 180
r 1.298112 0 1 tcp 1040 ------- 0 0.0 1.0 89 176
+ 1.298112 1 0 ack 40 ------- 0 1.0 0.0 89 181
- 1.298112 1 0 ack 40 ------- 0 1.0 0.0 89 181
r 1.298944 0 1 tcp 1040 ------- 0 0.0 1.0 90 177
+ 1.298944 1 0 ack 40 ------- 0 1.0 0.0 90 182
- 1.298944 1 0 ack 40 ------- 0 1.0 0.0 90 182
r 1.299776 0 1 tcp 1040 ------- 0 0.0 1.0 91 178
+ 1.299776 1 0 ack 40 ------- 0 1.0 0.0 91 183
- 1.299776 1 0 ack 40 ------- 0 1.0 0.0 91 183
r 1.31648 1 0 ack 40 ------- 0 1.0 0.0 87 179
+ 1.31648 0 1 tcp 1040 ------- 0 0.0 1.0 92 184
- 1.31648 0 1 tcp 1040 ------- 0 0.0 1.0 92 184
r 1.317312 1 0 ack 40 ------- 0 1.0 0.0 88 180
+ 1.317312 0 1 tcp 1040 ------- 0 0.0 1.0 93 185
- 1.317312 0 1 tcp 1040 ------- 0 0.0 1.0 93 185
r 1.318144 1 0 ack 40 ------- 0 1.0 0.0 89 181
+ 1.318144 0 1 tcp 1040 ------- 0 0.0 1.0 94 186
- 1.318144 0 1 tcp 1040 ------- 0 0.0 1.0 94 186
r 1.318976 1 0 ack 40 ------- 0 1.0 0.0 90 182
+ 1.318976 0 1 tcp 1040 ------- 0 0.0 1.0 95 187
- 1.318976 0 1 tcp 1040 ------- 0 0.0 1.0 95 187
r 1.319808 1 0 ack 40 ------- 0 1.0 0.0 91 183
+ 1.319808 0 1 tcp 1040 ------- 0 0.0 1.0 96 188
- 1.319808 0 1 tcp 1040 ------- 0 0.0 1.0 96 188
r 1.337312 0 1 tcp 1040 ------- 0 0.0 1.0 92 184
+ 1.337312 1 0 ack 40 ------- 0 1.0 0.0 92 189
- 1.337312 1 0 ack 40 ------- 0 1.0 0.0 92 189
r 1.338144 0 1 tcp 1040 ------- 0 0.0 1.0 93 185
+ 1.338144 1 0 ack 40 ------- 0 1.0 0.0 93 190
- 1.338144 1 0 ack 40 ------- 0 1.0 0.0 93 190
r 1.338976 0 1 tcp 1040 ------- 0 0.0 1.0 94 186
+ 1.338976 1 0 ack 40 ------- 0 1.0 0.0 94 191
- 1.338976 1 0 ack 40 ------- 0 1.0 0.0 94 191
r 1.339808 0 1 tcp 1040 ------- 0 0.0 1.0 95 187
+ 1.339808 1 0 ack 40 ------- 0 1.0 0.0 95 192
- 1.339808 1 0 ack 40 ------- 0 1.0 0.0 95 192
r 1.34064 0 1 tcp 1040 ------- 0 0.0 1.0 96 188
+ 1.34064 1 0 ack 40 ------- 0 1.0 0.0 96 193
- 1.34064 1 0 ack 40 ------- 0 1.0 0.0 96 193
r 1.357344 1 0 ack 40 ------- 0 1.0 0.0 92 189
+ 1.357344 0 1 tcp 1040 ------- 0 0.0 1.0 97 194
- 1.357344 0 1 tcp 1040 ------- 0 0.0 1.0 97 194
r 1.358176 1 0 ack 40 ------- 0 1.0 0.0 93 190
+ 1.358176 0 1 tcp 1040 ------- 0 0.0 1.0 98 195
- 1.358176 0 1 tcp 1040 ------- 0 0.0 1.0 98 195
r 1.359008 1 0 ack 40 ------- 0 1.0 0.0 94 191
+ 1.359008 0 1 tcp 1040 ------- 0 0.0 1.0 99 196
- 1.359008 0 1 tcp 1040 ------- 0 0.0 1.0 99 196
r 1.35984 1 0 ack 40 ------- 0 1.0 0.0 95 192
+ 1.35984 0 1 tcp 1040 ------- 0 0.0 1.0 100 197
- 1.35984 0 1 tcp 1040 ------- 0 0.0 1.0 100 197
r 1.360672 1 0 ack 40 ------- 0 1.0 0.0 96 193
+ 1.360672 0 1 tcp 1040 ------- 0 0.0 1.0 101 198
- 1.360672 0 1 tcp 1040 ------- 0 0.0 1.0 101 198
r 1.378176 0 1 tcp 1040 ------- 0 0.0 1.0 97 194
+ 1.378176 1 0 ack 40 ------- 0 1.0 0.0 97 199
- 1.378176 1 0 ack 40 ------- 0 1.0 0.0 97 199
r 1.379008 0 1 tcp 1040 ------- 0 0.0 1.0 98 195
+ 1.379008 1 0 ack 40 ------- 0 1.0 0.0 98 200
- 1.379008 1 0 ack 40 ------- 0 1.0 0.0 98 200
r 1.37984 0 1 tcp 1040 ------- 0 0.0 1.0 99 196
+ 1.37984 1 0 ack 40 ------- 0 1.0 0.0 99 201
- 1.37984 1 0 ack 40 ------- 0 1.0 0.0 99 201
r 1.380672 0 1 tcp 1040 ------- 0 0.0 1.0 100 197
+ 1.380672 1 0 ack 40 ------- 0 1.0 0.0 100 202
- 1.380672 1 0 ack 40 ------- 0 1.0 0.0 100 202
r 1.381504 0 1 tcp 1040 ------- 0 0.0 1.0 101 198
+ 1.381504 1 0 ack 40 ------- 0 1.0 0.0 101 203
- 1.381504 1 0 ack 40 ------- 0 1.0 0.0 101 203
r 1.398208 1 0 ack 40 ------- 0 1.0 0.0 97 199
+ 1.398208 0 1 tcp 1040 ------- 0 0.0 1.0 102 204
- 1.398208 0 1 tcp 1040 ------- 0 0.0 1.0 102 204
r 1.39904 1 0 ack 40 ------- 0 1.0 0.0 98 200
+ 1.39904 0 1 tcp 1040 ------- 0 0.0 1.0 103 205
- 1.39904 0 1 tcp 1040 ------- 0 0.0 1.0 103 205
r 1.399872 1 0 ack 40 ------- 0 1.0 0.0 99 201
+ 1.399872 0 1 tcp 1040 ------- 0 0.0 1.0 104 206
- 1.399872 0 1 tcp 1040 ------- 0 0.0 1.0 104 206
r 1.400704 1 0 ack 40 ------- 0 1.0 0.0 100 202
+ 1.400704 0 1 tcp 1040 ------- 0 0.0 1.0 105 207
- 1.400704 0 1 tcp 1040 ------- 0 0.0 1.0 105 207
r 1.401536 1 0 ack 40 ------- 0 1.0 0.0 101 203
+ 1.401536 0 1 tcp 1040 ------- 0 0.0 1.0 106 208
- 1.401536 0 1 tcp 1040 ------- 0 0.0 1.0 106 208
r 1.41904 0 1 tcp 1040 ------- 0 0.0 1.0 102 204
+ 1.41904 1 0 ack 40 ------- 0 1.0 0.0 102 209
- 1.41904 1 0 ack 40 ------- 0 1.0 0.0 102 209
r 1.419872 0 1 tcp 1040 ------- 0 0.0 1.0 103 205
+ 1.419872 1 0 ack 40 ------- 0 1.0 0.0 103 210
- 1.419872 1 0 ack 40 ------- 0 1.0 0.0 103 210
r 1.420704 0 1 tcp 1040 ------- 0 0.0 1.0 104 206
+ 1.420704 1 0 ack 40 ------- 0 1.0 0.0 104 211
- 1.420704 1 0 ack 40 ------- 0 1.0 0.0 104 211
r 1.421536 0 1 tcp 1040 ------- 0 0.0 1.0 105 207
+ 1.421536 1 0 ack 40 ------- 0 1.0 0.0 105 212
- 1.421536 1 0 ack 40 ------- 0 1.0 0.0 105 212
r 1.422368 0 1 tcp 1040 ------- 0 0.0 1.0 106 208