V -t * -v 1.0a5 -a 0
A -t * -n 1 -p 0 -o 0x7fffffff -c 30 -a 1
A -t * -h 1 -m 1073741823 -s 0
n -t * -a 0 -s 0 -S UP -v circle -c black -i black
n -t * -a 1 -s 1 -S UP -v circle -c black -i black
l -t * -s 0 -d 1 -S UP -r 10000000 -D 0.02 -c black
+ -t 0.5 -s 0 -d 1 -p tcp -e 40 -c 0 -i 0 -a 0 -x {0.0 1.0 0 ------- null}
- -t 0.5 -s 0 -d 1 -p tcp -e 40 -c 0 -i 0 -a 0 -x {0.0 1.0 0 ------- null}
h -t 0.5 -s 0 -d 1 -p tcp -e 40 -c 0 -i 0 -a 0 -x {0.0 1.0 -1 ------- null}
r -t 0.520032 -s 0 -d 1 -p tcp -e 40 -c 0 -i 0 -a 0 -x {0.0 1.0 0 ------- null}
+ -t 0.520032 -s 1 -d 0 -p ack -e 40 -c 0 -i 1 -a 0 -x {1.0 0.0 0 ------- null}
- -t 0.520032 -s 1 -d 0 -p ack -e 40 -c 0 -i 1 -a 0 -x {1.0 0.0 0 ------- null}
h -t 0.520032 -s 1 -d 0 -p ack -e 40 -c 0 -i 1 -a 0 -x {1.0 0.0 -1 ------- null}
r -t 0.540064 -s 1 -d 0 -p ack -e 40 -c 0 -i 1 -a 0 -x {1.0 0.0 0 ------- null}
+ -t 0.540064 -s 0 -d 1 -p tcp -e 1040 -c 0 -i 2 -a 0 -x {0.0 1.0 1 ------- null}
- -t 0.540064 -s 0 -d 1 -p tcp -e 1040 -c 0 -i 2 -a 0 -x {0.0 1.0 1 ------- null}
h -t 0.540064 -s 0 -d 1 -p tcp -e 1040 -c 0 -i 2 -a 0 -x {0.0 1.0 -1 ------- null}
+ -t 0.540064 -s 0 -d 1 -p tcp -e 1040 -c 0 -i 3 -a 0 -x {0.0 1.0 2 ------- null}
- -t 0.540896 -s 0 -d 1 -p tcp -e 1040 -c 0 -i 3 -a 0 -x {0.0 1.0 2 ------- null}
h -t 0.540896 -s 0 -d 1 -p tcp -e 1040 -c 0 -i 3 -a 0 -x {0.0 1.0 -1 ------- null}
r -t 0.560896 -s 0 -d 1 -p tcp -e 1040 -c 0 -i 2 -a 0 -x {0.0 1.0 1 ------- null}
+ -t 0.560896 -s 1 -d 0 -p ack -e 40 -c 0 -i 4 -a 0 -x {1.0 0.0 1 ------- null}
- -t 0.560896 -s 1 -d 0 -p ack -e 40 -c 0 -i 4 -a 0 -x {1.0 0.0 1 ------- null}
h -t 0.560896 -s 1 -d 0 -p ack -e 40 -c 0 -i 4 -a 0 -x {1.0 0.0 -1 ------- null}
r -t 0.561728 -s 0 -d 1 -p tcp -e 1040 -c 0 -i 3 -a 0 -x {0.0 1.0 2 ------- null}
+ -t 0.561728 -s 1 -d 0 -p ack -e 40 -c 0 -i 5 -a 0 -x {1.0 0.0 2 ------- null}
- -t 0.561728 -s 1 -d 0 -p ack -e 40 -c 0 -i 5 -a 0 -x {1.0 0.0 2 ------- null}
h -t 0.561728 -s 1 -d 0 -p ack -e 40 -c 0 -i 5 -a 0 -x {1.0 0.0 -1 ------- null}
r -t 0.580928 -s 1 -d 0 -p ack -e 40 -c 0 -i 4 -a 0 -x {1.0 0.0 1 ------- null}
+ -t 0.580928 -s 0 -d 1 -p tcp -e 1040 -c 0 -i 6 -a 0 -x {0.0 1.0 3 ------- null}
- -t 0.580928 -s 0 -d 1 -p tcp -e 1040 -c 0 -i 6 -a 0 -x {0.0 1.0 3 ------- null}
h -t 0.580928 -s 0 -d 1 -p tcp -e 1040 -c 0 -i 6 -a 0 -x {0.0 1.0 -1 ------- null}
+ -t 0.580928 -s 0 -d 1 -p tcp -e 1040 -c 0 -i 7 -a 0 -x {0.0 1.0 4 ------- null}
r -t 0.58176 -s 1 -d 0 -p ack -e 40 -c 0 -i 5 -a 0 -x {1.0 0.0 2 ------- null}
+ -t 0.58176 -s 0 -d 1 -p tcp -e 1040 -c 0 -i 8 -a 0 -x {0.0 1.0 5 ------- null}
+ -t 0.58176 -s 0 -d 1 -p tcp -e 1040 -c 0 -i 9 -a 0 -x {0.0 1.0 6 ------- null}
- -t 0.58176 -s 0 -d 1 -p tcp -e 1040 -c 0 -i 7 -a 0 -x {0.0 1.0 4 ------- null}
h -t 0.58176 -s 0 -d 1 -p tcp -e 1040 -c 0 -i 7 -a 0 -x {0.0 1.0 -1 ------- null}
- -t 0.582592 -s 0 -d 1 -p tcp -e 1040 -c 0 -i 8 -a 0 -x {0.0 1.0 5 ------- null}
h -t 0.582592 -s 0 -d 1 -p tcp -e 1040 -c 0 -i 8 -a 0 -x {0.0 1.0 -1 ------- null}
- -t 0.583424 -s 0 -d 1 -p tcp -e 1040 -c 0 -i 9 -a 0 -x {0.0 1.0 6 ------- null}
h -t 0.583424 -s 0 -d 1 -p tcp -e 1040 -c 0 -i 9 -a 0 -x {0.0 1.0 -1 ------- null}
r -t 0.60176 -s 0 -d 1 -p tcp -e 1040 -c 0 -i 6 -a 0 -x {0.0 1.0 3 ------- null}
+ -t 0.60176 -s 1 -d 0 -p ack -e 40 -c 0 -i 10 -a 0 -x {1.0 0.0 3 ------- null}
- -t 0.60176 -s 1 -d 0 -p ack -e 40 -c 0 -i 10 -a 0 -x {1.0 0.0 3 ------- null}
h -t 0.60176 -s 1 -d 0 -p ack -e 40 -c 0 -i 10 -a 0 -x {1.0 0.0 -1 ------- null}
r -t 0.602592 -s 0 -d 1 -p tcp -e 1040 -c 0 -i 7 -a 0 -x {0.0 1.0 4 ------- null}
+ -t 0.602592 -s 1 -d 0 -p ack -e 40 -c 0 -i 11 -a 0 -x {1.0 0.0 4 ------- null}
- -t 0.602592 -s 1 -d 0 -p ack -e 40 -c 0 -i 11 -a 0 -x {1.0 0.0 4 ------- null}
h -t 0.602592 -s 1 -d 0 -p ack -e 40 -c 0 -i 11 -a 0 -x {1.0 0.0 -1 ------- null}
r -t 0.603424 -s 0 -d 1 -p tcp -e 1040 -c 0 -i 8 -a 0 -x {0.0 1.0 5 ------- null}
+ -t 0.603424 -s 1 -d 0 -p ack -e 40 -c 0 -i 12 -a 0 -x {1.0 0.0 5 ------- null}
- -t 0.603424 -s 1 -d 0 -p ack -e 40 -c 0 -i 12 -a 0 -x {1.0 0.0 5 ------- null}
h -t 0.603424 -s 1 -d 0 -p ack -e 40 -c 0 -i 12 -a 0 -x {1.0 0.0 -1 ------- null}
r -t 0.604256 -s 0 -d 1 -p tcp -e 1040 -c 0 -i 9 -a 0 -x {0.0 1.0 6 ------- null}
+ -t 0.604256 -s 1 -d 0 -p ack -e 40 -c 0 -i 13 -a 0 -x {1.0 0.0 6 ------- null}
- -t 0.604256 -s 1 -d 0 -p ack -e 40 -c 0 -i 13 -a 0 -x {1.0 0.0 6 ------- null}
h -t 0.604256 -s 1 -d 0 -p ack -e 40 -c 0 -i 13 -a 0 -x {1.0 0.0 -1 ------- null}
r -t 0.621792 -s 1 -d 0 -p ack -e 40 -c 0 -i 10 -a 0 -x {1.0 0.0 3 ------- null}
+ -t 0.621792 -s 0 -d 1 -p tcp -e 1040 -c 0 -i 14 -a 0 -x {0.0 1.0 7 ------- null}
- -t 0.621792 -s 0 -d 1 -p tcp -e 1040 -c 0 -i 14 -a 0 -x {0.0 1.0 7 ------- null}
h -t 0.621792 -s 0 -d 1 -p tcp -e 1040 -c 0 -i 14 -a 0 -x {0.0 1.0 -1 ------- null}
+ -t 0.621792 -s 0 -d 1 -p tcp -e 1040 -c 0 -i 15 -a 0 -x {0.0 1.0 8 ------- null}
r -t 0.622624 -s 1 -d 0 -p ack -e 40 -c 0 -i 11 -a 0 -x {1.0 0.0 4 ------- null}
+ -t 0.622624 -s 0 -d 1 -p tcp -e 1040 -c 0 -i 16 -a 0 -x {0.0 1.0 9 ------- null}
- -t 0.622624 -s 0 -d 1 -p tcp -e 1040 -c 0 -i 15 -a 0 -x {0.0 1.0 8 ------- null}
h -t 0.622624 -s 0 -d 1 -p tcp -e 1040 -c 0 -i 15 -a 0 -x {0.0 1.0 -1 ------- null}
r -t 0.623456 -s 1 -d 0 -p ack -e 40 -c 0 -i 12 -a 0 -x {1.0 0.0 5 ------- null}
+ -t 0.623456 -s 0 -d 1 -p tcp -e 1040 -c 0 -i 17 -a 0 -x {0.0 1.0 10 ------- null}
- -t 0.623456 -s 0 -d 1 -p tcp -e 1040 -c 0 -i 16 -a 0 -x {0.0 1.0 9 ------- null}
h -t 0.623456 -s 0 -d 1 -p tcp -e 1040 -c 0 -i 16 -a 0 -x {0.0 1.0 -1 ------- null}
r -t 0.624288 -s 1 -d 0 -p ack -e 40 -c 0 -i 13 -a 0 -x {1.0 0.0 6 ------- null}
+ -t 0.624288 -s 0 -d 1 -p tcp -e 1040 -c 0 -i 18 -a 0 -x {0.0 1.0 11 ------- null}
- -t 0.624288 -s 0 -d 1 -p tcp -e 1040 -c 0 -i 17 -a 0 -x {0.0 1.0 10 ------- null}
h -t 0.624288 -s 0 -d 1 -p tcp -e 1040 -c 0 -i 17 -a 0 -x {0.0 1.0 -1 ------- null}
- -t 0.62512 -s 0 -d 1 -p tcp -e 1040 -c 0 -i 18 -a 0 -x {0.0 1.0 11 ------- null}
h -t 0.62512 -s 0 -d 1 -p tcp -e 1040 -c 0 -i 18 -a 0 -x {0.0 1.0 -1 ------- null}
r -t 0.642624 -s 0 -d 1 -p tcp -e 1040 -c 0 -i 14 -a 0 -x {0.0 1.0 7 ------- null}
+ -t 0.642624 -s 1 -d 0 -p ack -e 40 -c 0 -i 19 -a 0 -x {1.0 0.0 7 ------- null}
- -t 0.642624 -s 1 -d 0 -p ack -e 40 -c 0 -i 19 -a 0 -x {1.0 0.0 7 ------- null}
h -t 0.642624 -s 1 -d 0 -p ack -e 40 -c 0 -i 19 -a 0 -x {1.0 0.0 -1 ------- null}
r -t 0.643456 -s 0 -d 1 -p tcp -e 1040 -c 0 -i 15 -a 0 -x {0.0 1.0 8 ------- null}
+ -t 0.643456 -s 1 -d 0 -p ack -e 40 -c 0 -i 20 -a 0 -x {1.0 0.0 8 ------- null}
- -t 0.643456 -s 1 -d 0 -p ack -e 40 -c 0 -i 20 -a 0 -x {1.0 0.0 8 ------- null}
h -t 0.643456 -s 1 -d 0 -p ack -e 40 -c 0 -i 20 -a 0 -x {1.0 0.0 -1 ------- null}
r -t 0.644288 -s 0 -d 1 -p tcp -e 1040 -c 0 -i 16 -a 0 -x {0.0 1.0 9 ------- null}
+ -t 0.644288 -s 1 -d 0 -p ack -e 40 -c 0 -i 21 -a 0 -x {1.0 0.0 9 ------- null}
- -t 0.644288 -s 1 -d 0 -p ack -e 40 -c 0 -i 21 -a 0 -x {1.0 0.0 9 ------- null}
h -t 0.644288 -s 1 -d 0 -p ack -e 40 -c 0 -i 21 -a 0 -x {1.0 0.0 -1 ------- null}
r -t 0.64512 -s 0 -d 1 -p tcp -e 1040 -c 0 -i 17 -a 0 -x {0.0 1.0 10 ------- null}
+ -t 0.64512 -s 1 -d 0 -p ack -e 40 -c 0 -i 22 -a 0 -x {1.0 0.0 10 ------- null}
- -t 0.64512 -s 1 -d 0 -p ack -e 40 -c 0 -i 22 -a 0 -x {1.0 0.0 10 ------- null}
h -t 0.64512 -s 1 -d 0 -p ack -e 40 -c 0 -i 22 -a 0 -x {1.0 0.0 -1 ------- null}
r -t 0.645952 -s 0 -d 1 -p tcp -e 1040 -c 0 -i 18 -a 0 -x {0.0 1.0 11 ------- null}
+ -t 0.645952 -s 1 -d 0 -p ack -e 40 -c 0 -i 23 -a 0 -x {1.0 0.0 11 ------- null}
- -t 0.645952 -s 1 -d 0 -p ack -e 40 -c 0 -i 23 -a 0 -x {1.0 0.0 11 ------- null}
h -t 0.645952 -s 1 -d 0 -p ack -e 40 -c 0 -i 23 -a 0 -x {1.0 0.0 -1 ------- null}
r -t 0.662656 -s 1 -d 0 -p ack -e 40 -c 0 -i 19 -a 0 -x {1.0 0.0 7 ------- null}
+ -t 0.662656 -s 0 -d 1 -p tcp -e 1040 -c 0 -i 24 -a 0 -x {0.0 1.0 12 ------- null}
- -t 0.662656 -s 0 -d 1 -p tcp -e 1040 -c 0 -i 24 -a 0 -x {0.0 1.0 12 ------- null}
h -t 0.662656 -s 0 -d 1 -p tcp -e 1040 -c 0 -i 24 -a 0 -x {0.0 1.0 -1 ------- null}
r -t 0.663488 -s 1 -d 0 -p ack -e 40 -c 0 -i 20 -a 0 -x {1.0 0.0 8 ------- null}
+ -t 0.663488 -s 0 -d 1 -p tcp -e 1040 -c 0 -i 25 -a 0 -x {0.0 1.0 13 ------- null}
- -t 0.663488 -s 0 -d 1 -p tcp -e 1040 -c 0 -i 25 -a 0 -x {0.0 1.0 13 ------- null}
h -t 0.663488 -s 0 -d 1 -p tcp -e 1040 -c 0 -i 25 -a 0 -x {0.0 1.0 -1 ------- null}
r -t 0.66432 -s 1 -d 0 -p ack -e 40 -c 0 -i 21 -a 0 -x {1.0 0.0 9 ------- null}
+ -t 0.66432 -s 0 -d 1 -p tcp -e 1040 -c 0 -i 26 -a 0 -x {0.0 1.0 14 ------- null}
- -t 0.66432 -s 0 -d 1 -p tcp -e 1040 -c 0 -i 26 -a 0 -x {0.0 1.0 14 ------- null}
h -t 0.66432 -s 0 -d 1 -p tcp -e 1040 -c 0 -i 26 -a 0 -x {0.0 1.0 -1 ------- null}
r -t 0.665152 -s 1 -d 0 -p ack -e 40 -c 0 -i 22 -a 0 -x {1.0 0.0 10 ------- null}
+ -t 0.665152 -s 0 -d 1 -p tcp -e 1040 -c 0 -i 27 -a 0 -x {0.0 1.0 15 ------- null}
- -t 0.665152 -s 0 -d 1 -p tcp -e 1040 -c 0 -i 27 -a 0 -x {0.0 1.0 15 ------- null}
h -t 0.665152 -s 0 -d 1 -p tcp -e 1040 -c 0 -i 27 -a 0 -x {0.0 1.0 -1 ------- null}
r -t 0.665984 -s 1 -d 0 -p ack -e 40 -c 0 -i 23 -a 0 -x {1.0 0.0 11 ------- null}
+ -t 0.665984 -s 0 -d 1 -p tcp -e 1040 -c 0 -i 28 -a 0 -x {0.0 1.0 16 ------- null}
- -t 0.665984 -s 0 -d 1 -p tcp -e 1040 -c 0 -i 28 -a 0 -x {0.0 1.0 16 ------- null}
h -t 0.665984 -s 0 -d 1 -p tcp -e 1040 -c 0 -i 28 -a 0 -x {0.0 1.0 -1 ------- null}
r -t 0.683488 -s 0 -d 1 -p tcp -e 1040 -c 0 -i 24 -a 0 -x {0.0 1.0 12 ------- null}
+ -t 0.683488 -s 1 -d 0 -p ack -e 40 -c 0 -i 29 -a 0 -x {1.0 0.0 12 ------- null}
- -t 0.683488 -s 1 -d 0 -p ack -e 40 -c 0 -i 29 -a 0 -x {1.0 0.0 12 ------- null}
h -t 0.683488 -s 1 -d 0 -p ack -e 40 -c 0 -i 29 -a 0 -x {1.0 0.0 -1 ------- null}
r -t 0.68432 -s 0 -d 1 -p tcp -e 1040 -c 0 -i 25 -a 0 -x {0.0 1.0 13 ------- null}
+ -t 0.68432 -s 1 -d 0 -p ack -e 40 -c 0 -i 30 -a 0 -x {1.0 0.0 13 ------- null}
- -t 0.68432 -s 1 -d 0 -p ack -e 40 -c 0 -i 30 -a 0 -x {1.0 0.0 13 ------- null}
h -t 0.68432 -s 1 -d 0 -p ack -e 40 -c 0 -i 30 -a 0 -x {1.0 0.0 -1 ------- null}
r -t 0.685152 -s 0 -d 1 -p tcp -e 1040 -c 0 -i 26 -a 0 -x {0.0 1.0 14 ------- null}
+ -t 0.685152 -s 1 -d 0 -p ack -e 40 -c 0 -i 31 -a 0 -x {1.0 0.0 14 ------- null}
- -t 0.685152 -s 1 -d 0 -p ack -e 40 -c 0 -i 31 -a 0 -x {1.0 0.0 14 ------- null}
h -t 0.685152 -s 1 -d 0 -p ack -e 40 -c 0 -i 31 -a 0 -x {1.0 0.0 -1 ------- null}
r -t 0.685984 -s 0 -d 1 -p tcp -e 1040 -c 0 -i 27 -a 0 -x {0.0 1.0 15 ------- null}
+ -t 0.685984 -s 1 -d 0 -p ack -e 40 -c 0 -i 32 -a 0 -x {1.0 0.0 15 ------- null}
- -t 0.685984 -s 1 -d 0 -p ack -e 40 -c 0 -i 32 -a 0 -x {1.0 0.0 15 ------- null}
h -t 0.685984 -s 1 -d 0 -p ack -e 40 -c 0 -i 32 -a 0 -x {1.0 0.0 -1 ------- null}
r -t 0.686816 -s 0 -d 1 -p tcp -e 1040 -c 0 -i 28 -a 0 -x {0.0 1.0 16 ------- null}
+ -t 0.686816 -s 1 -d 0 -p ack -e 40 -c 0 -i 33 -a 0 -x {1.0 0.0 16 ------- null}
- -t 0.686816 -s 1 -d 0 -p ack -e 40 -c 0 -i 33 -a 0 -x {1.0 0.0 16 ------- null}
h -t 0.686816 -s 1 -d 0 -p ack -e 40 -c 0 -i 33 -a 0 -x {1.0 0.0 -1 ------- null}
r -t 0.70352 -s 1 -d 0 -p ack -e 40 -c 0 -i 29 -a 0 -x {1.0 0.0 12 ------- null}
+ -t 0.70352 -s 0 -d 1 -p tcp -e 1040 -c 0 -i 34 -a 0 -x {0.0 1.0 17 ------- null}
- -t 0.70352 -s 0 -d 1 -p tcp -e 1040 -c 0 -i 34 -a 0 -x {0.0 1.0 17 ------- null}
h -t 0.70352 -s 0 -d 1 -p tcp -e 1040 -c 0 -i 34 -a 0 -x {0.0 1.0 -1 ------- null}
r -t 0.704352 -s 1 -d 0 -p ack -e 40 -c 0 -i 30 -a 0 -x {1.0 0.0 13 ------- null}
+ -t 0.704352 -s 0 -d 1 -p tcp -e 1040 -c 0 -i 35 -a 0 -x {0.0 1.0 18 ------- null}
- -t 0.704352 -s 0 -d 1 -p tcp -e 1040 -c 0 -i 35 -a 0 -x {0.0 1.0 18 ------- null}
h -t 0.704352 -s 0 -d 1 -p tcp -e 1040 -c 0 -i 35 -a 0 -x {0.0 1.0 -1 ------- null}
r -t 0.705184 -s 1 -d 0 -p ack -e 40 -c 0 -i 31 -a 0 -x {1.0 0.0 14 ------- null}
+ -t 0.705184 -s 0 -d 1 -p tcp -e 1040 -c 0 -i 36 -a 0 -x {0.0 1.0 19 ------- null}
- -t 0.705184 -s 0 -d 1 -p tcp -e 1040 -c 0 -i 36 -a 0 -x {0.0 1.0 19 ------- null}
h -t 0.705184 -s 0 -d 1 -p tcp -e 1040 -c 0 -i 36 -a 0 -x {0.0 1.0 -1 ------- null}
r -t 0.706016 -s 1 -d 0 -p ack -e 40 -c 0 -i 32 -a 0 -x {1.0 0.0 15 ------- null}
+ -t 0.706016 -s 0 -d 1 -p tcp -e 1040 -c 0 -i 37 -a 0 -x {0.0 1.0 20 ------- null}
- -t 0.706016 -s 0 -d 1 -p tcp -e 1040 -c 0 -i 37 -a 0 -x {0.0 1.0 20 ------- null}
h -t 0.706016 -s 0 -d 1 -p tcp -e 1040 -c 0 -i 37 -a 0 -x {0.0 1.0 -1 ------- null}
r -t 0.706848 -s 1 -d 0 -p ack -e 40 -c 0 -i 33 -a 0 -x {1.0 0.0 16 ------- null}
+ -t 0.706848 -s 0 -d 1 -p tcp -e 1040 -c 0 -i 38 -a 0 -x {0.0 1.0 21 ------- null}
- -t 0.706848 -s 0 -d 1 -p tcp -e 1040 -c 0 -i 38 -a 0 -x {0.0 1.0 21 ------- null}
h -t 0.706848 -s 0 -d 1 -p tcp -e 1040 -c 0 -i 38 -a 0 -x {0.0 1.0 -1 ------- null}
r -t 0.724352 -s 0 -d 1 -p tcp -e 1040 -c 0 -i 34 -a 0 -x {0.0 1.0 17 ------- null}
+ -t 0.724352 -s 1 -d 0 -p ack -e 40 -c 0 -i 39 -a 0 -x {1.0 0.0 17 ------- null}
- -t 0.724352 -s 1 -d 0 -p ack -e 40 -c 0 -i 39 -a 0 -x {1.0 0.0 17 ------- null}
h -t 0.724352 -s 1 -d 0 -p ack -e 40 -c 0 -i 39 -a 0 -x {1.0 0.0 -1 ------- null}
r -t 0.725184 -s 0 -d 1 -p tcp -e 1040 -c 0 -i 35 -a 0 -x {0.0 1.0 18 ------- null}
+ -t 0.725184 -s 1 -d 0 -p ack -e 40 -c 0 -i 40 -a 0 -x {1.0 0.0 18 ------- null}
- -t 0.725184 -s 1 -d 0 -p ack -e 40 -c 0 -i 40 -a 0 -x {1.0 0.0 18 ------- null}
h -t 0.725184 -s 1 -d 0 -p ack -e 40 -c 0 -i 40 -a 0 -x {1.0 0.0 -1 ------- null}
r -t 0.726016 -s 0 -d 1 -p tcp -e 1040 -c 0 -i 36 -a 0 -x {0.0 1.0 19 ------- null}
+ -t 0.726016 -s 1 -d 0 -p ack -e 40 -c 0 -i 41 -a 0 -x {1.0 0.0 19 ------- null}
- -t 0.726016 -s 1 -d 0 -p ack -e 40 -c 0 -i 41 -a 0 -x {1.0 0.0 19 ------- null}
h -t 0.726016 -s 1 -d 0 -p ack -e 40 -c 0 -i 41 -a 0 -x {1.0 0.0 -1 ------- null}
r -t 0.726848 -s 0 -d 1 -p tcp -e 1040 -c 0 -i 37 -a 0 -x {0.0 1.0 20 ------- null}
+ -t 0.726848 -s 1 -d 0 -p ack -e 40 -c 0 -i 42 -a 0 -x {1.0 0.0 20 ------- null}
- -t 0.726848 -s 1 -d 0 -p ack -e 40 -c 0 -i 42 -a 0 -x {1.0 0.0 20 ------- null}
h -t 0.726848 -s 1 -d 0 -p ack -e 40 -c 0 -i 42 -a 0 -x {1.0 0.0 -1 ------- null}
r -t 0.72768 -s 0 -d 1 -p tcp -e 1040 -c 0 -i 38 -a 0 -x {0.0 1.0 21 ------- null}
+ -t 0.72768 -s 1 -d 0 -p ack -e 40 -c 0 -i 43 -a 0 -x {1.0 0.0 21 ------- null}
- -t 0.72768 -s 1 -d 0 -p ack -e 40 -c 0 -i 43 -a 0 -x {1.0 0.0 21 ------- null}
h -t 0.72768 -s 1 -d 0 -p ack -e 40 -c 0 -i 43 -a 0 -x {1.0 0.0 -1 ------- null}
r -t 0.744384 -s 1 -d 0 -p ack -e 40 -c 0 -i 39 -a 0 -x {1.0 0.0 17 ------- null}
+ -t 0.744384 -s 0 -d 1 -p tcp -e 1040 -c 0 -i 44 -a 0 -x {0.0 1.0 22 ------- null}
- -t 0.744384 -s 0 -d 1 -p tcp -e 1040 -c 0 -i 44 -a 0 -x {0.0 1.0 22 ------- null}
h -t 0.744384 -s 0 -d 1 -p tcp -e 1040 -c 0 -i 44 -a 0 -x {0.0 1.0 -1 ------- null}
r -t 0.745216 -s 1 -d 0 -p ack -e 40 -c 0 -i 40 -a 0 -x {1.0 0.0 18 ------- null}
+ -t 0.745216 -s 0 -d 1 -p tcp -e 1040 -c 0 -i 45 -a 0 -x {0.0 1.0 23 ------- null}
- -t 0.745216 -s 0 -d 1 -p tcp -e 1040 -c 0 -i 45 -a 0 -x {0.0 1.0 23 ------- null}
h -t 0.745216 -s 0 -d 1 -p tcp -e 1040 -c 0 -i 45 -a 0 -x {0.0 1.0 -1 ------- null}
r -t 0.746048 -s 1 -d 0 -p ack -e 40 -c 0 -i 41 -a 0 -x {1.0 0.0 19 ------- null}
+ -t 0.746048 -s 0 -d 1 -p tcp -e 1040 -c 0 -i 46 -a 0 -x {0.0 1.0 24 ------- null}
- -t 0.746048 -s 0 -d 1 -p tcp -e 1040 -c 0 -i 46 -a 0 -x {0.0 1.0 24 ------- null}
h -t 0.746048 -s 0 -d 1 -p tcp -e 1040 -c 0 -i 46 -a 0 -x {0.0 1.0 -1 ------- null}
r -t 0.74688 -s 1 -d 0 -p ack -e 40 -c 0 -i 42 -a 0 -x {1.0 0.0 20 ------- null}
+ -t 0.74688 -s 0 -d 1 -p tcp -e 1040 -c 0 -i 47 -a 0 -x {0.0 1.0 25 ------- null}
- -t 0.74688 -s 0 -d 1 -p tcp -e 1040 -c 0 -i 47 -a 0 -x {0.0 1.0 25 ------- null}
h -t 0.74688 -s 0 -d 1 -p tcp -e 1040 -c 0 -i 47 -a 0 -x {0.0 1.0 -1 ------- null}
r -t 0.747712 -s 1 -d 0 -p ack -e 40 -c 0 -i 43 -a 0 -x {1.0 0.0 21 ------- null}
+ -t 0.747712 -s 0 -d 1 -p tcp -e 1040 -c 0 -i 48 -a 0 -x {0.0 1.0 26 ------- null}
- -t 0.747712 -s 0 -d 1 -p tcp -e 1040 -c 0 -i 48 -a 0 -x {0.0 1.0 26 ------- null}
h -t 0.747712 -s 0 -d 1 -p tcp -e 1040 -c 0 -i 48 -a 0 -x {0.0 1.0 -1 ------- null}
r -t 0.765216 -s 0 -d 1 -p tcp -e 1040 -c 0 -i 44 -a 0 -x {0.0 1.0 22 ------- null}
+ -t 0.765216 -s 1 -d 0 -p ack -e 40 -c 0 -i 49 -a 0 -x {1.0 0.0 22 ------- null}
- -t 0.765216 -s 1 -d 0 -p ack -e 40 -c 0 -i 49 -a 0 -x {1.0 0.0 22 ------- null}
h -t 0.765216 -s 1 -d 0 -p ack -e 40 -c 0 -i 49 -a 0 -x {1.0 0.0 -1 ------- null}
r -t 0.766048 -s 0 -d 1 -p tcp -e 1040 -c 0 -i 45 -a 0 -x {0.0 1.0 23 ------- null}
+ -t 0.766048 -s 1 -d 0 -p ack -e 40 -c 0 -i 50 -a 0 -x {1.0 0.0 23 ------- null}
- -t 0.766048 -s 1 -d 0 -p ack -e 40 -c 0 -i 50 -a 0 -x {1.0 0.0 23 ------- null}
h -t 0.766048 -s 1 -d 0 -p ack -e 40 -c 0 -i 50 -a 0 -x {1.0 0.0 -1 ------- null}
r -t 0.76688 -s 0 -d 1 -p tcp -e 1040 -c 0 -i 46 -a 0 -x {0.0 1.0 24 ------- null}
+ -t 0.76688 -s 1 -d 0 -p ack -e 40 -c 0 -i 51 -a 0 -x {1.0 0.0 24 ------- null}
- -t 0.76688 -s 1 -d 0 -p ack -e 40 -c 0 -i 51 -a 0 -x {1.0 0.0 24 ------- null}
h -t 0.76688 -s 1 -d 0 -p ack -e 40 -c 0 -i 51 -a 0 -x {1.0 0.0 -1 ------- null}
r -t 0.767712 -s 0 -d 1 -p tcp -e 1040 -c 0 -i 47 -a 0 -x {0.0 1.0 25 ------- null}
+ -t 0.767712 -s 1 -d 0 -p ack -e 40 -c 0 -i 52 -a 0 -x {1.0 0.0 25 ------- null}
- -t 0.767712 -s 1 -d 0 -p ack -e 40 -c 0 -i 52 -a 0 -x {1.0 0.0 25 ------- null}
h -t 0.767712 -s 1 -d 0 -p ack -e 40 -c 0 -i 52 -a 0 -x {1.0 0.0 -1 ------- null}
r -t 0.768544 -s 0 -d 1 -p tcp -e 1040 -c 0 -i 48 -a 0 -x {0.0 1.0 26 ------- null}
+ -t 0.768544 -s 1 -d 0 -p ack -e 40 -c 0 -i 53 -a 0 -x {1.0 0.0 26 ------- null}
- -t 0.768544 -s 1 -d 0 -p ack -e 40 -c 0 -i 53 -a 0 -x {1.0 0.0 26 ------- null}
h -t 0.768544 -s 1 -d 0 -p ack -e 40 -c 0 -i 53 -a 0 -x {1.0 0.0 -1 ------- null}
r -t 0.785248 -s 1 -d 0 -p ack -e 40 -c 0 -i 49 -a 0 -x {1.0 0.0 22 ------- null}
+ -t 0.785248 -s 0 -d 1 -p tcp -e 1040 -c 0 -i 54 -a 0 -x {0.0 1.0 27 ------- null}
- -t 0.785248 -s 0 -d 1 -p tcp -e 1040 -c 0 -i 54 -a 0 -x {0.0 1.0 27 ------- null}
h -t 0.785248 -s 0 -d 1 -p tcp -e 1040 -c 0 -i 54 -a 0 -x {0.0 1.0 -1 ------- null}
r -t 0.78608 -s 1 -d 0 -p ack -e 40 -c 0 -i 50 -a 0 -x {1.0 0.0 23 ------- null}
+ -t 0.78608 -s 0 -d 1 -p tcp -e 1040 -c 0 -i 55 -a 0 -x {0.0 1.0 28 ------- null}
- -t 0.78608 -s 0 -d 1 -p tcp -e 1040 -c 0 -i 55 -a 0 -x {0.0 1.0 28 ------- null}
h -t 0.78608 -s 0 -d 1 -p tcp -e 1040 -c 0 -i 55 -a 0 -x {0.0 1.0 -1 ------- null}
r -t 0.786912 -s 1 -d 0 -p ack -e 40 -c 0 -i 51 -a 0 -x {1.0 0.0 24 ------- null}
+ -t 0.786912 -s 0 -d 1 -p tcp -e 1040 -c 0 -i 56 -a 0 -x {0.0 1.0 29 ------- null}
- -t 0.786912 -s 0 -d 1 -p tcp -e 1040 -c 0 -i 56 -a 0 -x {0.0 1.0 29 ------- null}
h -t 0.786912 -s 0 -d 1 -p tcp -e 1040 -c 0 -i 56 -a 0 -x {0.0 1.0 -1 ------- null}
r -t 0.787744 -s 1 -d 0 -p ack -e 40 -c 0 -i 52 -a 0 -x {1.0 0.0 25 ------- null}
+ -t 0.787744 -s 0 -d 1 -p tcp -e 1040 -c 0 -i 57 -a 0 -x {0.0 1.0 30 ------- null}
- -t 0.787744 -s 0 -d 1 -p tcp -e 1040 -c 0 -i 57 -a 0 -x {0.0 1.0 30 ------- null}
h -t 0.787744 -s 0 -d 1 -p tcp -e 1040 -c 0 -i 57 -a 0 -x {0.0 1.0 -1 ------- null}
r -t 0.788576 -s 1 -d 0 -p ack -e 40 -c 0 -i 53 -a 0 -x {1.0 0.0 26 ------- null}
+ -t 0.788576 -s 0 -d 1 -p tcp -e 1040 -c 0 -i 58 -a 0 -x {0.0 1.0 31 ------- null}
- -t 0.788576 -s 0 -d 1 -p tcp -e 1040 -c 0 -i 58 -a 0 -x {0.0 1.0 31 ------- null}
h -t 0.788576 -s 0 -d 1 -p tcp -e 1040 -c 0 -i 58 -a 0 -x {0.0 1.0 -1 ------- null}
r -t 0.80608 -s 0 -d 1 -p tcp -e 1040 -c 0 -i 54 -a 0 -x {0.0 1.0 27 ------- null}
+ -t 0.80608 -s 1 -d 0 -p ack -e 40 -c 0 -i 59 -a 0 -x {1.0 0.0 27 ------- null}
- -t 0.80608 -s 1 -d 0 -p ack -e 40 -c 0 -i 59 -a 0 -x {1.0 0.0 27 ------- null}
h -t 0.80608 -s 1 -d 0 -p ack -e 40 -c 0 -i 59 -a 0 -x {1.0 0.0 -1 ------- null}
r -t 0.806912 -s 0 -d 1 -p tcp -e 1040 -c 0 -i 55 -a 0 -x {0.0 1.0 28 ------- null}
+ -t 0.806912 -s 1 -d 0 -p ack -e 40 -c 0 -i 60 -a 0 -x {1.0 0.0 28 ------- null}
- -t 0.806912 -s 1 -d 0 -p ack -e 40 -c 0 -i 60 -a 0 -x {1.0 0.0 28 ------- null}
h -t 0.806912 -s 1 -d 0 -p ack -e 40 -c 0 -i 60 -a 0 -x {1.0 0.0 -1 ------- null}
r -t 0.807744 -s 0 -d 1 -p tcp -e 1040 -c 0 -i 56 -a 0 -x {0.0 1.0 29 ------- null}
+ -t 0.807744 -s 1 -d 0 -p ack -e 40 -c 0 -i 61 -a 0 -x {1.0 0.0 29 ------- null}
- -t 0.807744 -s 1 -d 0 -p ack -e 40 -c 0 -i 61 -a 0 -x {1.0 0.0 29 ------- null}
h -t 0.807744 -s 1 -d 0 -p ack -e 40 -c 0 -i 61 -a 0 -x {1.0 0.0 -1 ------- null}
r -t 0.808576 -s 0 -d 1 -p tcp -e 1040 -c 0 -i 57 -a 0 -x {0.0 1.0 30 ------- null}
+ -t 0.808576 -s 1 -d 0 -p ack -e 40 -c 0 -i 62 -a 0 -x {1.0 0.0 30 ------- null}
- -t 0.808576 -s 1 -d 0 -p ack -e 40 -c 0 -i 62 -a 0 -x {1.0 0.0 30 ------- null}
h -t 0.808576 -s 1 -d 0 -p ack -e 40 -c 0 -i 62 -a 0 -x {1.0 0.0 -1 ------- null}
r -t 0.809408 -s 0 -d 1 -p tcp -e 1040 -c 0 -i 58 -a 0 -x {0.0 1.0 31 ------- null}
+ -t 0.809408 -s 1 -d 0 -p ack -e 40 -c 0 -i 63 -a 0 -x {1.0 0.0 31 ------- null}
- -t 0.809408 -s 1 -d 0 -p ack -e 40 -c 0 -i 63 -a 0 -x {1.0 0.0 31 ------- null}
h -t 0.809408 -s 1 -d 0 -p ack -e 40 -c 0 -i 63 -a 0 -x {1.0 0.0 -1 ------- null}
r -t 0.826112 -s 1 -d 0 -p ack -e 40 -c 0 -i 59 -a 0 -x {1.0 0.0 27 ------- null}
+ -t 0.826112 -s 0 -d 1 -p tcp -e 1040 -c 0 -i 64 -a 0 -x {0.0 1.0 32 ------- null}
- -t 0.826112 -s 0 -d 1 -p tcp -e 1040 -c 0 -i 64 -a 0 -x {0.0 1.0 32 ------- null}
h -t 0.826112 -s 0 -d 1 -p tcp -e 1040 -c 0 -i 64 -a 0 -x {0.0 1.0 -1 ------- null}
r -t 0.826944 -s 1 -d 0 -p ack -e 40 -c 0 -i 60 -a 0 -x {1.0 0.0 28 ------- null}
+ -t 0.826944 -s 0 -d 1 -p tcp -e 1040 -c 0 -i 65 -a 0 -x {0.0 1.0 33 ------- null}
- -t 0.826944 -s 0 -d 1 -p tcp -e 1040 -c 0 -i 65 -a 0 -x {0.0 1.0 33 ------- null}
h -t 0.826944 -s 0 -d 1 -p tcp -e 1040 -c 0 -i 65 -a 0 -x {0.0 1.0 -1 ------- null}
r -t 0.827776 -s 1 -d 0 -p ack -e 40 -c 0 -i 61 -a 0 -x {1.0 0.0 29 ------- null}
+ -t 0.827776 -s 0 -d 1 -p tcp -e 1040 -c 0 -i 66 -a 0 -x {0.0 1.0 34 ------- null}
- -t 0.827776 -s 0 -d 1 -p tcp -e 1040 -c 0 -i 66 -a 0 -x {0.0 1.0 34 ------- null}
h -t 0.827776 -s 0 -d 1 -p tcp -e 1040 -c 0 -i 66 -a 0 -x {0.0 1.0 -1 ------- null}
r -t 0.828608 -s 1 -d 0 -p ack -e 40 -c 0 -i 62 -a 0 -x {1.0 0.0 30 ------- null}
+ -t 0.828608 -s 0 -d 1 -p tcp -e 1040 -c 0 -i 67 -a 0 -x {0.0 1.0 35 ------- null}
- -t 0.828608 -s 0 -d 1 -p tcp -e 1040 -c 0 -i 67 -a 0 -x {0.0 1.0 35 ------- null}
h -t 0.828608 -s 0 -d 1 -p tcp -e 1040 -c 0 -i 67 -a 0 -x {0.0 1.0 -1 ------- null}
r -t 0.82944 -s 1 -d 0 -p ack -e 40 -c 0 -i 63 -a 0 -x {1.0 0.0 31 ------- null}
+ -t 0.82944 -s 0 -d 1 -p tcp -e 1040 -c 0 -i 68 -a 0 -x {0.0 1.0 36 ------- null}
- -t 0.82944 -s 0 -d 1 -p tcp -e 1040 -c 0 -i 68 -a 0 -x {0.0 1.0 36 ------- null}
h -t 0.82944 -s 0 -d 1 -p tcp -e 1040 -c 0 -i 68 -a 0 -x {0.0 1.0 -1 ------- null}
r -t 0.846944 -s 0 -d 1 -p tcp -e 1040 -c 0 -i 64 -a 0 -x {0.0 1.0 32 ------- null}
+ -t 0.846944 -s 1 -d 0 -p ack -e 40 -c 0 -i 69 -a 0 -x {1.0 0.0 32 ------- null}
- -t 0.846944 -s 1 -d 0 -p ack -e 40 -c 0 -i 69 -a 0 -x {1.0 0.0 32 ------- null}
h -t 0.846944 -s 1 -d 0 -p ack -e 40 -c 0 -i 69 -a 0 -x {1.0 0.0 -1 ------- null}
r -t 0.847776 -s 0 -d 1 -p tcp -e 1040 -c 0 -i 65 -a 0 -x {0.0 1.0 33 ------- null}
+ -t 0.847776 -s 1 -d 0 -p ack -e 40 -c 0 -i 70 -a 0 -x {1.0 0.0 33 ------- null}
- -t 0.847776 -s 1 -d 0 -p ack -e 40 -c 0 -i 70 -a 0 -x {1.0 0.0 33 ------- null}
h -t 0.847776 -s 1 -d 0 -p ack -e 40 -c 0 -i 70 -a 0 -x {1.0 0.0 -1 ------- null}
r -t 0.848608 -s 0 -d 1 -p tcp -e 1040 -c 0 -i 66 -a 0 -x {0.0 1.0 34 ------- null}
+ -t 0.848608 -s 1 -d 0 -p ack -e 40 -c 0 -i 71 -a 0 -x {1.0 0.0 34 ------- null}
- -t 0.848608 -s 1 -d 0 -p ack -e 40 -c 0 -i 71 -a 0 -x {1.0 0.0 34 ------- null}
h -t 0.848608 -s 1 -d 0 -p ack -e 40 -c 0 -i 71 -a 0 -x {1.0 0.0 -1 ------- null}
r -t 0.84944 -s 0 -d 1 -p tcp -e 1040 -c 0 -i 67 -a 0 -x {0.0 1.0 35 ------- null}
+ -t 0.84944 -s 1 -d 0 -p ack -e 40 -c 0 -i 72 -a 0 -x {1.0 0.0 35 ------- null}
- -t 0.84944 -s 1 -d 0 -p ack -e 40 -c 0 -i 72 -a 0 -x {1.0 0.0 35 ------- null}
h -t 0.84944 -s 1 -d 0 -p ack -e 40 -c 0 -i 72 -a 0 -x {1.0 0.0 -1 ------- null}
r -t 0.850272 -s 0 -d 1 -p tcp -e 1040 -c 0 -i 68 -a 0 -x {0.0 1.0 36 ------- null}
+ -t 0.850272 -s 1 -d 0 -p ack -e 40 -c 0 -i 73 -a 0 -x {1.0 0.0 36 ------- null}
- -t 0.850272 -s 1 -d 0 -p ack -e 40 -c 0 -i 73 -a 0 -x {1.0 0.0 36 ------- null}
h -t 0.850272 -s 1 -d 0 -p ack -e 40 -c 0 -i 73 -a 0 -x {1.0 0.0 -1 ------- null}
r -t 0.866976 -s 1 -d 0 -p ack -e 40 -c 0 -i 69 -a 0 -x {1.0 0.0 32 ------- null}
+ -t 0.866976 -s 0 -d 1 -p tcp -e 1040 -c 0 -i 74 -a 0 -x {0.0 1.0 37 ------- null}
- -t 0.866976 -s 0 -d 1 -p tcp -e 1040 -c 0 -i 74 -a 0 -x {0.0 1.0 37 ------- null}
h -t 0.866976 -s 0 -d 1 -p tcp -e 1040 -c 0 -i 74 -a 0 -x {0.0 1.0 -1 ------- null}
r -t 0.867808 -s 1 -d 0 -p ack -e 40 -c 0 -i 70 -a 0 -x {1.0 0.0 33 ------- null}
+ -t 0.867808 -s 0 -d 1 -p tcp -e 1040 -c 0 -i 75 -a 0 -x {0.0 1.0 38 ------- null}
- -t 0.867808 -s 0 -d 1 -p tcp -e 1040 -c 0 -i 75 -a 0 -x {0.0 1.0 38 ------- null}
h -t 0.867808 -s 0 -d 1 -p tcp -e 1040 -c 0 -i 75 -a 0 -x {0.0 1.0 -1 ------- null}
r -t 0.86864 -s 1 -d 0 -p ack -e 40 -c 0 -i 71 -a 0 -x {1.0 0.0 34 ------- null}
+ -t 0.86864 -s 0 -d 1 -p tcp -e 1040 -c 0 -i 76 -a 0 -x {0.0 1.0 39 ------- null}
- -t 0.86864 -s 0 -d 1 -p tcp -e 1040 -c 0 -i 76 -a 0 -x {0.0 1.0 39 ------- null}
h -t 0.86864 -s 0 -d 1 -p tcp -e 1040 -c 0 -i 76 -a 0 -x {0.0 1.0 -1 ------- null}
r -t 0.869472 -s 1 -d 0 -p ack -e 40 -c 0 -i 72 -a 0 -x {1.0 0.0 35 ------- null}
+ -t 0.869472 -s 0 -d 1 -p tcp -e 1040 -c 0 -i 77 -a 0 -x {0.0 1.0 40 ------- null}
- -t 0.869472 -s 0 -d 1 -p tcp -e 1040 -c 0 -i 77 -a 0 -x {0.0 1.0 40 ------- null}
h -t 0.869472 -s 0 -d 1 -p tcp -e 1040 -c 0 -i 77 -a 0 -x {0.0 1.0 -1 ------- null}
r -t 0.870304 -s 1 -d 0 -p ack -e 40 -c 0 -i 73 -a 0 -x {1.0 0.0 36 ------- null}
+ -t 0.870304 -s 0 -d 1 -p tcp -e 1040 -c 0 -i 78 -a 0 -x {0.0 1.0 41 ------- null}
- -t 0.870304 -s 0 -d 1 -p tcp -e 1040 -c 0 -i 78 -a 0 -x {0.0 1.0 41 ------- null}
h -t 0.870304 -s 0 -d 1 -p tcp -e 1040 -c 0 -i 78 -a 0 -x {0.0 1.0 -1 ------- null}
r -t 0.887808 -s 0 -d 1 -p tcp -e 1040 -c 0 -i 74 -a 0 -x {0.0 1.0 37 ------- null}
+ -t 0.887808 -s 1 -d 0 -p ack -e 40 -c 0 -i 79 -a 0 -x {1.0 0.0 37 ------- null}
- -t 0.887808 -s 1 -d 0 -p ack -e 40 -c 0 -i 79 -a 0 -x {1.0 0.0 37 ------- null}
h -t 0.887808 -s 1 -d 0 -p ack -e 40 -c 0 -i 79 -a 0 -x {1.0 0.0 -1 ------- null}
r -t 0.88864 -s 0 -d 1 -p tcp -e 1040 -c 0 -i 75 -a 0 -x {0.0 1.0 38 ------- null}
+ -t 0.88864 -s 1 -d 0 -p ack -e 40 -c 0 -i 80 -a 0 -x {1.0 0.0 38 ------- null}
- -t 0.88864 -s 1 -d 0 -p ack -e 40 -c 0 -i 80 -a 0 -x {1.0 0.0 38 ------- null}
h -t 0.88864 -s 1 -d 0 -p ack -e 40 -c 0 -i 80 -a 0 -x {1.0 0.0 -1 ------- null}
r -t 0.889472 -s 0 -d 1 -p tcp -e 1040 -c 0 -i 76 -a 0 -x {0.0 1.0 39 ------- null}
+ -t 0.889472 -s 1 -d 0 -p ack -e 40 -c 0 -i 81 -a 0 -x {1.0 0.0 39 ------- null}
- -t 0.889472 -s 1 -d 0 -p ack -e 40 -c 0 -i 81 -a 0 -x {1.0 0.0 39 ------- null}
h -t 0.889472 -s 1 -d 0 -p ack -e 40 -c 0 -i 81 -a 0 -x {1.0 0.0 -1 ------- null}
r -t 0.890304 -s 0 -d 1 -p tcp -e 1040 -c 0 -i 77 -a 0 -x {0.0 1.0 40 ------- null}
+ -t 0.890304 -s 1 -d 0 -p ack -e 40 -c 0 -i 82 -a 0 -x {1.0 0.0 40 ------- null}
- -t 0.890304 -s 1 -d 0 -p ack -e 40 -c 0 -i 82 -a 0 -x {1.0 0.0 40 ------- null}
h -t 0.890304 -s 1 -d 0 -p ack -e 40 -c 0 -i 82 -a 0 -x {1.0 0.0 -1 ------- null}
r -t 0.891136 -s 0 -d 1 -p tcp -e 1040 -c 0 -i 78 -a 0 -x {0.0 1.0 41 ------- null}
+ -t 0.891136 -s 1 -d 0 -p ack -e 40 -c 0 -i 83 -a 0 -x {1.0 0.0 41 ------- null}
- -t 0.891136 -s 1 -d 0 -p ack -e 40 -c 0 -i 83 -a 0 -x {1.0 0.0 41 ------- null}
h -t 0.891136 -s 1 -d 0 -p ack -e 40 -c 0 -i 83 -a 0 -x {1.0 0.0 -1 ------- null}
r -t 0.90784 -s 1 -d 0 -p ack -e 40 -c 0 -i 79 -a 0 -x {1.0 0.0 37 ------- null}
+ -t 0.90784 -s 0 -d 1 -p tcp -e 1040 -c 0 -i 84 -a 0 -x {0.0 1.0 42 ------- null}
- -t 0.90784 -s 0 -d 1 -p tcp -e 1040 -c 0 -i 84 -a 0 -x {0.0 1.0 42 ------- null}
h -t 0.90784 -s 0 -d 1 -p tcp -e 1040 -c 0 -i 84 -a 0 -x {0.0 1.0 -1 ------- null}
r -t 0.908672 -s 1 -d 0 -p ack -e 40 -c 0 -i 80 -a 0 -x {1.0 0.0 38 ------- null}
+ -t 0.908672 -s 0 -d 1 -p tcp -e 1040 -c 0 -i 85 -a 0 -x {0.0 1.0 43 ------- null}
- -t 0.908672 -s 0 -d 1 -p tcp -e 1040 -c 0 -i 85 -a 0 -x {0.0 1.0 43 ------- null}
h -t 0.908672 -s 0 -d 1 -p tcp -e 1040 -c 0 -i 85 -a 0 -x {0.0 1.0 -1 ------- null}
r -t 0.909504 -s 1 -d 0 -p ack -e 40 -c 0 -i 81 -a 0 -x {1.0 0.0 39 ------- null}
+ -t 0.909504 -s 0 -d 1 -p tcp -e 1040 -c 0 -i 86 -a 0 -x {0.0 1.0 44 ------- null}
- -t 0.909504 -s 0 -d 1 -p tcp -e 1040 -c 0 -i 86 -a 0 -x {0.0 1.0 44 ------- null}
h -t 0.909504 -s 0 -d 1 -p tcp -e 1040 -c 0 -i 86 -a 0 -x {0.0 1.0 -1 ------- null}
r -t 0.910336 -s 1 -d 0 -p ack -e 40 -c 0 -i 82 -a 0 -x {1.0 0.0 40 ------- null}
+ -t 0.910336 -s 0 -d 1 -p tcp -e 1040 -c 0 -i 87 -a 0 -x {0.0 1.0 45 ------- null}
- -t 0.910336 -s 0 -d 1 -p tcp -e 1040 -c 0 -i 87 -a 0 -x {0.0 1.0 45 ------- null}
h -t 0.910336 -s 0 -d 1 -p tcp -e 1040 -c 0 -i 87 -a 0 -x {0.0 1.0 -1 ------- null}
r -t 0.911168 -s 1 -d 0 -p ack -e 40 -c 0 -i 83 -a 0 -x {1.0 0.0 41 ------- null}
+ -t 0.911168 -s 0 -d 1 -p tcp -e 1040 -c 0 -i 88 -a 0 -x {0.0 1.0 46 ------- null}
- -t 0.911168 -s 0 -d 1 -p tcp -e 1040 -c 0 -i 88 -a 0 -x {0.0 1.0 46 ------- null}
h -t 0.911168 -s 0 -d 1 -p tcp -e 1040 -c 0 -i 88 -a 0 -x {0.0 1.0 -1 ------- null}
r -t 0.928672 -s 0 -d 1 -p tcp -e 1040 -c 0 -i 84 -a 0 -x {0.0 1.0 42 ------- null}
+ -t 0.928672 -s 1 -d 0 -p ack -e 40 -c 0 -i 89 -a 0 -x {1.0 0.0 42 ------- null}
- -t 0.928672 -s 1 -d 0 -p ack -e 40 -c 0 -i 89 -a 0 -x {1.0 0.0 42 ------- null}
h -t 0.928672 -s 1 -d 0 -p ack -e 40 -c 0 -i 89 -a 0 -x {1.0 0.0 -1 ------- null}
r -t 0.929504 -s 0 -d 1 -p tcp -e 1040 -c 0 -i 85 -a 0 -x {0.0 1.0 43 ------- null}
+ -t 0.929504 -s 1 -d 0 -p ack -e 40 -c 0 -i 90 -a 0 -x {1.0 0.0 43 ------- null}
- -t 0.929504 -s 1 -d 0 -p ack -e 40 -c 0 -i 90 -a 0 -x {1.0 0.0 43 ------- null}
h -t 0.929504 -s 1 -d 0 -p ack -e 40 -c 0 -i 90 -a 0 -x {1.0 0.0 -1 ------- null}
r -t 0.930336 -s 0 -d 1 -p tcp -e 1040 -c 0 -i 86 -a 0 -x {0.0 1.0 44 ------- null}