V -t * -v 1.0a5 -a 0
A -t * -n 1 -p 0 -o 0x7fffffff -c 30 -a 1
A -t * -h 1 -m 1073741823 -s 0
n -t * -a 0 -s 0 -S UP -v circle -c black -i black
n -t * -a 1 -s 1 -S UP -v circle -c black -i black
n -t * -a 2 -s 2 -S UP -v circle -c black -i black
l -t * -s 0 -d 1 -S UP -r 1000000 -D 0.01 -c black
l -t * -s 1 -d 2 -S UP -r 1000000 -D 0.01 -c black
+ -t 0.1 -s 0 -d 1 -p tcp -e 40 -c 0 -i 0 -a 0 -x {0.0 2.0 0 ------- null}
- -t 0.1 -s 0 -d 1 -p tcp -e 40 -c 0 -i 0 -a 0 -x {0.0 2.0 0 ------- null}
h -t 0.1 -s 0 -d 1 -p tcp -e 40 -c 0 -i 0 -a 0 -x {0.0 2.0 -1 ------- null}
r -t 0.11032 -s 0 -d 1 -p tcp -e 40 -c 0 -i 0 -a 0 -x {0.0 2.0 0 ------- null}
+ -t 0.11032 -s 1 -d 2 -p tcp -e 40 -c 0 -i 0 -a 0 -x {0.0 2.0 0 ------- null}
- -t 0.11032 -s 1 -d 2 -p tcp -e 40 -c 0 -i 0 -a 0 -x {0.0 2.0 0 ------- null}
h -t 0.11032 -s 1 -d 2 -p tcp -e 40 -c 0 -i 0 -a 0 -x {0.0 2.0 -1 ------- null}
r -t 0.12064 -s 1 -d 2 -p tcp -e 40 -c 0 -i 0 -a 0 -x {0.0 2.0 0 ------- null}
+ -t 0.12064 -s 2 -d 1 -p ack -e 40 -c 0 -i 1 -a 0 -x {2.0 0.0 0 ------- null}
- -t 0.12064 -s 2 -d 1 -p ack -e 40 -c 0 -i 1 -a 0 -x {2.0 0.0 0 ------- null}
h -t 0.12064 -s 2 -d 1 -p ack -e 40 -c 0 -i 1 -a 0 -x {2.0 0.0 -1 ------- null}
r -t 0.13096 -s 2 -d 1 -p ack -e 40 -c 0 -i 1 -a 0 -x {2.0 0.0 0 ------- null}
+ -t 0.13096 -s 1 -d 0 -p ack -e 40 -c 0 -i 1 -a 0 -x {2.0 0.0 0 ------- null}
- -t 0.13096 -s 1 -d 0 -p ack -e 40 -c 0 -i 1 -a 0 -x {2.0 0.0 0 ------- null}
h -t 0.13096 -s 1 -d 0 -p ack -e 40 -c 0 -i 1 -a 0 -x {2.0 0.0 -1 ------- null}
r -t 0.14128 -s 1 -d 0 -p ack -e 40 -c 0 -i 1 -a 0 -x {2.0 0.0 0 ------- null}
+ -t 0.14128 -s 0 -d 1 -p tcp -e 1040 -c 0 -i 2 -a 0 -x {0.0 2.0 1 ------- null}
- -t 0.14128 -s 0 -d 1 -p tcp -e 1040 -c 0 -i 2 -a 0 -x {0.0 2.0 1 ------- null}
h -t 0.14128 -s 0 -d 1 -p tcp -e 1040 -c 0 -i 2 -a 0 -x {0.0 2.0 -1 ------- null}
+ -t 0.14128 -s 0 -d 1 -p tcp -e 1040 -c 0 -i 3 -a 0 -x {0.0 2.0 2 ------- null}
- -t 0.1496 -s 0 -d 1 -p tcp -e 1040 -c 0 -i 3 -a 0 -x {0.0 2.0 2 ------- null}
h -t 0.1496 -s 0 -d 1 -p tcp -e 1040 -c 0 -i 3 -a 0 -x {0.0 2.0 -1 ------- null}
r -t 0.1596 -s 0 -d 1 -p tcp -e 1040 -c 0 -i 2 -a 0 -x {0.0 2.0 1 ------- null}
+ -t 0.1596 -s 1 -d 2 -p tcp -e 1040 -c 0 -i 2 -a 0 -x {0.0 2.0 1 ------- null}
- -t 0.1596 -s 1 -d 2 -p tcp -e 1040 -c 0 -i 2 -a 0 -x {0.0 2.0 1 ------- null}
h -t 0.1596 -s 1 -d 2 -p tcp -e 1040 -c 0 -i 2 -a 0 -x {0.0 2.0 -1 ------- null}
r -t 0.16792 -s 0 -d 1 -p tcp -e 1040 -c 0 -i 3 -a 0 -x {0.0 2.0 2 ------- null}
+ -t 0.16792 -s 1 -d 2 -p tcp -e 1040 -c 0 -i 3 -a 0 -x {0.0 2.0 2 ------- null}
- -t 0.16792 -s 1 -d 2 -p tcp -e 1040 -c 0 -i 3 -a 0 -x {0.0 2.0 2 ------- null}
h -t 0.16792 -s 1 -d 2 -p tcp -e 1040 -c 0 -i 3 -a 0 -x {0.0 2.0 -1 ------- null}
r -t 0.17792 -s 1 -d 2 -p tcp -e 1040 -c 0 -i 2 -a 0 -x {0.0 2.0 1 ------- null}
+ -t 0.17792 -s 2 -d 1 -p ack -e 40 -c 0 -i 4 -a 0 -x {2.0 0.0 1 ------- null}
- -t 0.17792 -s 2 -d 1 -p ack -e 40 -c 0 -i 4 -a 0 -x {2.0 0.0 1 ------- null}
h -t 0.17792 -s 2 -d 1 -p ack -e 40 -c 0 -i 4 -a 0 -x {2.0 0.0 -1 ------- null}
r -t 0.18624 -s 1 -d 2 -p tcp -e 1040 -c 0 -i 3 -a 0 -x {0.0 2.0 2 ------- null}
+ -t 0.18624 -s 2 -d 1 -p ack -e 40 -c 0 -i 5 -a 0 -x {2.0 0.0 2 ------- null}
- -t 0.18624 -s 2 -d 1 -p ack -e 40 -c 0 -i 5 -a 0 -x {2.0 0.0 2 ------- null}
h -t 0.18624 -s 2 -d 1 -p ack -e 40 -c 0 -i 5 -a 0 -x {2.0 0.0 -1 ------- null}
r -t 0.18824 -s 2 -d 1 -p ack -e 40 -c 0 -i 4 -a 0 -x {2.0 0.0 1 ------- null}
+ -t 0.18824 -s 1 -d 0 -p ack -e 40 -c 0 -i 4 -a 0 -x {2.0 0.0 1 ------- null}
- -t 0.18824 -s 1 -d 0 -p ack -e 40 -c 0 -i 4 -a 0 -x {2.0 0.0 1 ------- null}
h -t 0.18824 -s 1 -d 0 -p ack -e 40 -c 0 -i 4 -a 0 -x {2.0 0.0 -1 ------- null}
r -t 0.19656 -s 2 -d 1 -p ack -e 40 -c 0 -i 5 -a 0 -x {2.0 0.0 2 ------- null}
+ -t 0.19656 -s 1 -d 0 -p ack -e 40 -c 0 -i 5 -a 0 -x {2.0 0.0 2 ------- null}
- -t 0.19656 -s 1 -d 0 -p ack -e 40 -c 0 -i 5 -a 0 -x {2.0 0.0 2 ------- null}
h -t 0.19656 -s 1 -d 0 -p ack -e 40 -c 0 -i 5 -a 0 -x {2.0 0.0 -1 ------- null}
r -t 0.19856 -s 1 -d 0 -p ack -e 40 -c 0 -i 4 -a 0 -x {2.0 0.0 1 ------- null}
+ -t 0.19856 -s 0 -d 1 -p tcp -e 1040 -c 0 -i 6 -a 0 -x {0.0 2.0 3 ------- null}
- -t 0.19856 -s 0 -d 1 -p tcp -e 1040 -c 0 -i 6 -a 0 -x {0.0 2.0 3 ------- null}
h -t 0.19856 -s 0 -d 1 -p tcp -e 1040 -c 0 -i 6 -a 0 -x {0.0 2.0 -1 ------- null}
+ -t 0.19856 -s 0 -d 1 -p tcp -e 1040 -c 0 -i 7 -a 0 -x {0.0 2.0 4 ------- null}
r -t 0.20688 -s 1 -d 0 -p ack -e 40 -c 0 -i 5 -a 0 -x {2.0 0.0 2 ------- null}
+ -t 0.20688 -s 0 -d 1 -p tcp -e 1040 -c 0 -i 8 -a 0 -x {0.0 2.0 5 ------- null}
+ -t 0.20688 -s 0 -d 1 -p tcp -e 1040 -c 0 -i 9 -a 0 -x {0.0 2.0 6 ------- null}
- -t 0.20688 -s 0 -d 1 -p tcp -e 1040 -c 0 -i 7 -a 0 -x {0.0 2.0 4 ------- null}
h -t 0.20688 -s 0 -d 1 -p tcp -e 1040 -c 0 -i 7 -a 0 -x {0.0 2.0 -1 ------- null}
- -t 0.2152 -s 0 -d 1 -p tcp -e 1040 -c 0 -i 8 -a 0 -x {0.0 2.0 5 ------- null}
h -t 0.2152 -s 0 -d 1 -p tcp -e 1040 -c 0 -i 8 -a 0 -x {0.0 2.0 -1 ------- null}
r -t 0.21688 -s 0 -d 1 -p tcp -e 1040 -c 0 -i 6 -a 0 -x {0.0 2.0 3 ------- null}
+ -t 0.21688 -s 1 -d 2 -p tcp -e 1040 -c 0 -i 6 -a 0 -x {0.0 2.0 3 ------- null}
- -t 0.21688 -s 1 -d 2 -p tcp -e 1040 -c 0 -i 6 -a 0 -x {0.0 2.0 3 ------- null}
h -t 0.21688 -s 1 -d 2 -p tcp -e 1040 -c 0 -i 6 -a 0 -x {0.0 2.0 -1 ------- null}
- -t 0.22352 -s 0 -d 1 -p tcp -e 1040 -c 0 -i 9 -a 0 -x {0.0 2.0 6 ------- null}
h -t 0.22352 -s 0 -d 1 -p tcp -e 1040 -c 0 -i 9 -a 0 -x {0.0 2.0 -1 ------- null}
r -t 0.2252 -s 0 -d 1 -p tcp -e 1040 -c 0 -i 7 -a 0 -x {0.0 2.0 4 ------- null}
+ -t 0.2252 -s 1 -d 2 -p tcp -e 1040 -c 0 -i 7 -a 0 -x {0.0 2.0 4 ------- null}
- -t 0.2252 -s 1 -d 2 -p tcp -e 1040 -c 0 -i 7 -a 0 -x {0.0 2.0 4 ------- null}
h -t 0.2252 -s 1 -d 2 -p tcp -e 1040 -c 0 -i 7 -a 0 -x {0.0 2.0 -1 ------- null}
r -t 0.23352 -s 0 -d 1 -p tcp -e 1040 -c 0 -i 8 -a 0 -x {0.0 2.0 5 ------- null}
+ -t 0.23352 -s 1 -d 2 -p tcp -e 1040 -c 0 -i 8 -a 0 -x {0.0 2.0 5 ------- null}
- -t 0.23352 -s 1 -d 2 -p tcp -e 1040 -c 0 -i 8 -a 0 -x {0.0 2.0 5 ------- null}
h -t 0.23352 -s 1 -d 2 -p tcp -e 1040 -c 0 -i 8 -a 0 -x {0.0 2.0 -1 ------- null}
r -t 0.2352 -s 1 -d 2 -p tcp -e 1040 -c 0 -i 6 -a 0 -x {0.0 2.0 3 ------- null}
+ -t 0.2352 -s 2 -d 1 -p ack -e 40 -c 0 -i 10 -a 0 -x {2.0 0.0 3 ------- null}
- -t 0.2352 -s 2 -d 1 -p ack -e 40 -c 0 -i 10 -a 0 -x {2.0 0.0 3 ------- null}
h -t 0.2352 -s 2 -d 1 -p ack -e 40 -c 0 -i 10 -a 0 -x {2.0 0.0 -1 ------- null}
r -t 0.24184 -s 0 -d 1 -p tcp -e 1040 -c 0 -i 9 -a 0 -x {0.0 2.0 6 ------- null}
+ -t 0.24184 -s 1 -d 2 -p tcp -e 1040 -c 0 -i 9 -a 0 -x {0.0 2.0 6 ------- null}
- -t 0.24184 -s 1 -d 2 -p tcp -e 1040 -c 0 -i 9 -a 0 -x {0.0 2.0 6 ------- null}
h -t 0.24184 -s 1 -d 2 -p tcp -e 1040 -c 0 -i 9 -a 0 -x {0.0 2.0 -1 ------- null}
r -t 0.24352 -s 1 -d 2 -p tcp -e 1040 -c 0 -i 7 -a 0 -x {0.0 2.0 4 ------- null}
+ -t 0.24352 -s 2 -d 1 -p ack -e 40 -c 0 -i 11 -a 0 -x {2.0 0.0 4 ------- null}
- -t 0.24352 -s 2 -d 1 -p ack -e 40 -c 0 -i 11 -a 0 -x {2.0 0.0 4 ------- null}
h -t 0.24352 -s 2 -d 1 -p ack -e 40 -c 0 -i 11 -a 0 -x {2.0 0.0 -1 ------- null}
r -t 0.24552 -s 2 -d 1 -p ack -e 40 -c 0 -i 10 -a 0 -x {2.0 0.0 3 ------- null}
+ -t 0.24552 -s 1 -d 0 -p ack -e 40 -c 0 -i 10 -a 0 -x {2.0 0.0 3 ------- null}
- -t 0.24552 -s 1 -d 0 -p ack -e 40 -c 0 -i 10 -a 0 -x {2.0 0.0 3 ------- null}
h -t 0.24552 -s 1 -d 0 -p ack -e 40 -c 0 -i 10 -a 0 -x {2.0 0.0 -1 ------- null}
r -t 0.25184 -s 1 -d 2 -p tcp -e 1040 -c 0 -i 8 -a 0 -x {0.0 2.0 5 ------- null}
+ -t 0.25184 -s 2 -d 1 -p ack -e 40 -c 0 -i 12 -a 0 -x {2.0 0.0 5 ------- null}
- -t 0.25184 -s 2 -d 1 -p ack -e 40 -c 0 -i 12 -a 0 -x {2.0 0.0 5 ------- null}
h -t 0.25184 -s 2 -d 1 -p ack -e 40 -c 0 -i 12 -a 0 -x {2.0 0.0 -1 ------- null}
r -t 0.25384 -s 2 -d 1 -p ack -e 40 -c 0 -i 11 -a 0 -x {2.0 0.0 4 ------- null}
+ -t 0.25384 -s 1 -d 0 -p ack -e 40 -c 0 -i 11 -a 0 -x {2.0 0.0 4 ------- null}
- -t 0.25384 -s 1 -d 0 -p ack -e 40 -c 0 -i 11 -a 0 -x {2.0 0.0 4 ------- null}
h -t 0.25384 -s 1 -d 0 -p ack -e 40 -c 0 -i 11 -a 0 -x {2.0 0.0 -1 ------- null}
r -t 0.25584 -s 1 -d 0 -p ack -e 40 -c 0 -i 10 -a 0 -x {2.0 0.0 3 ------- null}
+ -t 0.25584 -s 0 -d 1 -p tcp -e 1040 -c 0 -i 13 -a 0 -x {0.0 2.0 7 ------- null}
- -t 0.25584 -s 0 -d 1 -p tcp -e 1040 -c 0 -i 13 -a 0 -x {0.0 2.0 7 ------- null}
h -t 0.25584 -s 0 -d 1 -p tcp -e 1040 -c 0 -i 13 -a 0 -x {0.0 2.0 -1 ------- null}
+ -t 0.25584 -s 0 -d 1 -p tcp -e 1040 -c 0 -i 14 -a 0 -x {0.0 2.0 8 ------- null}
r -t 0.26016 -s 1 -d 2 -p tcp -e 1040 -c 0 -i 9 -a 0 -x {0.0 2.0 6 ------- null}
+ -t 0.26016 -s 2 -d 1 -p ack -e 40 -c 0 -i 15 -a 0 -x {2.0 0.0 6 ------- null}
- -t 0.26016 -s 2 -d 1 -p ack -e 40 -c 0 -i 15 -a 0 -x {2.0 0.0 6 ------- null}
h -t 0.26016 -s 2 -d 1 -p ack -e 40 -c 0 -i 15 -a 0 -x {2.0 0.0 -1 ------- null}
r -t 0.26216 -s 2 -d 1 -p ack -e 40 -c 0 -i 12 -a 0 -x {2.0 0.0 5 ------- null}
+ -t 0.26216 -s 1 -d 0 -p ack -e 40 -c 0 -i 12 -a 0 -x {2.0 0.0 5 ------- null}
- -t 0.26216 -s 1 -d 0 -p ack -e 40 -c 0 -i 12 -a 0 -x {2.0 0.0 5 ------- null}
h -t 0.26216 -s 1 -d 0 -p ack -e 40 -c 0 -i 12 -a 0 -x {2.0 0.0 -1 ------- null}
r -t 0.26416 -s 1 -d 0 -p ack -e 40 -c 0 -i 11 -a 0 -x {2.0 0.0 4 ------- null}
+ -t 0.26416 -s 0 -d 1 -p tcp -e 1040 -c 0 -i 16 -a 0 -x {0.0 2.0 9 ------- null}
+ -t 0.26416 -s 0 -d 1 -p tcp -e 1040 -c 0 -i 17 -a 0 -x {0.0 2.0 10 ------- null}
- -t 0.26416 -s 0 -d 1 -p tcp -e 1040 -c 0 -i 14 -a 0 -x {0.0 2.0 8 ------- null}
h -t 0.26416 -s 0 -d 1 -p tcp -e 1040 -c 0 -i 14 -a 0 -x {0.0 2.0 -1 ------- null}
r -t 0.27048 -s 2 -d 1 -p ack -e 40 -c 0 -i 15 -a 0 -x {2.0 0.0 6 ------- null}
+ -t 0.27048 -s 1 -d 0 -p ack -e 40 -c 0 -i 15 -a 0 -x {2.0 0.0 6 ------- null}
- -t 0.27048 -s 1 -d 0 -p ack -e 40 -c 0 -i 15 -a 0 -x {2.0 0.0 6 ------- null}
h -t 0.27048 -s 1 -d 0 -p ack -e 40 -c 0 -i 15 -a 0 -x {2.0 0.0 -1 ------- null}
r -t 0.27248 -s 1 -d 0 -p ack -e 40 -c 0 -i 12 -a 0 -x {2.0 0.0 5 ------- null}
+ -t 0.27248 -s 0 -d 1 -p tcp -e 1040 -c 0 -i 18 -a 0 -x {0.0 2.0 11 ------- null}
+ -t 0.27248 -s 0 -d 1 -p tcp -e 1040 -c 0 -i 19 -a 0 -x {0.0 2.0 12 ------- null}
- -t 0.27248 -s 0 -d 1 -p tcp -e 1040 -c 0 -i 16 -a 0 -x {0.0 2.0 9 ------- null}
h -t 0.27248 -s 0 -d 1 -p tcp -e 1040 -c 0 -i 16 -a 0 -x {0.0 2.0 -1 ------- null}
r -t 0.27416 -s 0 -d 1 -p tcp -e 1040 -c 0 -i 13 -a 0 -x {0.0 2.0 7 ------- null}
+ -t 0.27416 -s 1 -d 2 -p tcp -e 1040 -c 0 -i 13 -a 0 -x {0.0 2.0 7 ------- null}
- -t 0.27416 -s 1 -d 2 -p tcp -e 1040 -c 0 -i 13 -a 0 -x {0.0 2.0 7 ------- null}
h -t 0.27416 -s 1 -d 2 -p tcp -e 1040 -c 0 -i 13 -a 0 -x {0.0 2.0 -1 ------- null}
r -t 0.2808 -s 1 -d 0 -p ack -e 40 -c 0 -i 15 -a 0 -x {2.0 0.0 6 ------- null}
+ -t 0.2808 -s 0 -d 1 -p tcp -e 1040 -c 0 -i 20 -a 0 -x {0.0 2.0 13 ------- null}
+ -t 0.2808 -s 0 -d 1 -p tcp -e 1040 -c 0 -i 21 -a 0 -x {0.0 2.0 14 ------- null}
- -t 0.2808 -s 0 -d 1 -p tcp -e 1040 -c 0 -i 17 -a 0 -x {0.0 2.0 10 ------- null}
h -t 0.2808 -s 0 -d 1 -p tcp -e 1040 -c 0 -i 17 -a 0 -x {0.0 2.0 -1 ------- null}
r -t 0.28248 -s 0 -d 1 -p tcp -e 1040 -c 0 -i 14 -a 0 -x {0.0 2.0 8 ------- null}
+ -t 0.28248 -s 1 -d 2 -p tcp -e 1040 -c 0 -i 14 -a 0 -x {0.0 2.0 8 ------- null}
- -t 0.28248 -s 1 -d 2 -p tcp -e 1040 -c 0 -i 14 -a 0 -x {0.0 2.0 8 ------- null}
h -t 0.28248 -s 1 -d 2 -p tcp -e 1040 -c 0 -i 14 -a 0 -x {0.0 2.0 -1 ------- null}
- -t 0.28912 -s 0 -d 1 -p tcp -e 1040 -c 0 -i 18 -a 0 -x {0.0 2.0 11 ------- null}
h -t 0.28912 -s 0 -d 1 -p tcp -e 1040 -c 0 -i 18 -a 0 -x {0.0 2.0 -1 ------- null}
r -t 0.2908 -s 0 -d 1 -p tcp -e 1040 -c 0 -i 16 -a 0 -x {0.0 2.0 9 ------- null}
+ -t 0.2908 -s 1 -d 2 -p tcp -e 1040 -c 0 -i 16 -a 0 -x {0.0 2.0 9 ------- null}
- -t 0.2908 -s 1 -d 2 -p tcp -e 1040 -c 0 -i 16 -a 0 -x {0.0 2.0 9 ------- null}
h -t 0.2908 -s 1 -d 2 -p tcp -e 1040 -c 0 -i 16 -a 0 -x {0.0 2.0 -1 ------- null}
r -t 0.29248 -s 1 -d 2 -p tcp -e 1040 -c 0 -i 13 -a 0 -x {0.0 2.0 7 ------- null}
+ -t 0.29248 -s 2 -d 1 -p ack -e 40 -c 0 -i 22 -a 0 -x {2.0 0.0 7 ------- null}
- -t 0.29248 -s 2 -d 1 -p ack -e 40 -c 0 -i 22 -a 0 -x {2.0 0.0 7 ------- null}
h -t 0.29248 -s 2 -d 1 -p ack -e 40 -c 0 -i 22 -a 0 -x {2.0 0.0 -1 ------- null}
- -t 0.29744 -s 0 -d 1 -p tcp -e 1040 -c 0 -i 19 -a 0 -x {0.0 2.0 12 ------- null}
h -t 0.29744 -s 0 -d 1 -p tcp -e 1040 -c 0 -i 19 -a 0 -x {0.0 2.0 -1 ------- null}
r -t 0.29912 -s 0 -d 1 -p tcp -e 1040 -c 0 -i 17 -a 0 -x {0.0 2.0 10 ------- null}
+ -t 0.29912 -s 1 -d 2 -p tcp -e 1040 -c 0 -i 17 -a 0 -x {0.0 2.0 10 ------- null}
- -t 0.29912 -s 1 -d 2 -p tcp -e 1040 -c 0 -i 17 -a 0 -x {0.0 2.0 10 ------- null}
h -t 0.29912 -s 1 -d 2 -p tcp -e 1040 -c 0 -i 17 -a 0 -x {0.0 2.0 -1 ------- null}
r -t 0.3008 -s 1 -d 2 -p tcp -e 1040 -c 0 -i 14 -a 0 -x {0.0 2.0 8 ------- null}
+ -t 0.3008 -s 2 -d 1 -p ack -e 40 -c 0 -i 23 -a 0 -x {2.0 0.0 8 ------- null}
- -t 0.3008 -s 2 -d 1 -p ack -e 40 -c 0 -i 23 -a 0 -x {2.0 0.0 8 ------- null}
h -t 0.3008 -s 2 -d 1 -p ack -e 40 -c 0 -i 23 -a 0 -x {2.0 0.0 -1 ------- null}
r -t 0.3028 -s 2 -d 1 -p ack -e 40 -c 0 -i 22 -a 0 -x {2.0 0.0 7 ------- null}
+ -t 0.3028 -s 1 -d 0 -p ack -e 40 -c 0 -i 22 -a 0 -x {2.0 0.0 7 ------- null}
- -t 0.3028 -s 1 -d 0 -p ack -e 40 -c 0 -i 22 -a 0 -x {2.0 0.0 7 ------- null}
h -t 0.3028 -s 1 -d 0 -p ack -e 40 -c 0 -i 22 -a 0 -x {2.0 0.0 -1 ------- null}
- -t 0.30576 -s 0 -d 1 -p tcp -e 1040 -c 0 -i 20 -a 0 -x {0.0 2.0 13 ------- null}
h -t 0.30576 -s 0 -d 1 -p tcp -e 1040 -c 0 -i 20 -a 0 -x {0.0 2.0 -1 ------- null}
r -t 0.30744 -s 0 -d 1 -p tcp -e 1040 -c 0 -i 18 -a 0 -x {0.0 2.0 11 ------- null}
+ -t 0.30744 -s 1 -d 2 -p tcp -e 1040 -c 0 -i 18 -a 0 -x {0.0 2.0 11 ------- null}
- -t 0.30744 -s 1 -d 2 -p tcp -e 1040 -c 0 -i 18 -a 0 -x {0.0 2.0 11 ------- null}
h -t 0.30744 -s 1 -d 2 -p tcp -e 1040 -c 0 -i 18 -a 0 -x {0.0 2.0 -1 ------- null}
r -t 0.30912 -s 1 -d 2 -p tcp -e 1040 -c 0 -i 16 -a 0 -x {0.0 2.0 9 ------- null}
+ -t 0.30912 -s 2 -d 1 -p ack -e 40 -c 0 -i 24 -a 0 -x {2.0 0.0 9 ------- null}
- -t 0.30912 -s 2 -d 1 -p ack -e 40 -c 0 -i 24 -a 0 -x {2.0 0.0 9 ------- null}
h -t 0.30912 -s 2 -d 1 -p ack -e 40 -c 0 -i 24 -a 0 -x {2.0 0.0 -1 ------- null}
r -t 0.31112 -s 2 -d 1 -p ack -e 40 -c 0 -i 23 -a 0 -x {2.0 0.0 8 ------- null}
+ -t 0.31112 -s 1 -d 0 -p ack -e 40 -c 0 -i 23 -a 0 -x {2.0 0.0 8 ------- null}
- -t 0.31112 -s 1 -d 0 -p ack -e 40 -c 0 -i 23 -a 0 -x {2.0 0.0 8 ------- null}
h -t 0.31112 -s 1 -d 0 -p ack -e 40 -c 0 -i 23 -a 0 -x {2.0 0.0 -1 ------- null}
r -t 0.31312 -s 1 -d 0 -p ack -e 40 -c 0 -i 22 -a 0 -x {2.0 0.0 7 ------- null}
+ -t 0.31312 -s 0 -d 1 -p tcp -e 1040 -c 0 -i 25 -a 0 -x {0.0 2.0 15 ------- null}
+ -t 0.31312 -s 0 -d 1 -p tcp -e 1040 -c 0 -i 26 -a 0 -x {0.0 2.0 16 ------- null}
- -t 0.31408 -s 0 -d 1 -p tcp -e 1040 -c 0 -i 21 -a 0 -x {0.0 2.0 14 ------- null}
h -t 0.31408 -s 0 -d 1 -p tcp -e 1040 -c 0 -i 21 -a 0 -x {0.0 2.0 -1 ------- null}
r -t 0.31576 -s 0 -d 1 -p tcp -e 1040 -c 0 -i 19 -a 0 -x {0.0 2.0 12 ------- null}
+ -t 0.31576 -s 1 -d 2 -p tcp -e 1040 -c 0 -i 19 -a 0 -x {0.0 2.0 12 ------- null}
- -t 0.31576 -s 1 -d 2 -p tcp -e 1040 -c 0 -i 19 -a 0 -x {0.0 2.0 12 ------- null}
h -t 0.31576 -s 1 -d 2 -p tcp -e 1040 -c 0 -i 19 -a 0 -x {0.0 2.0 -1 ------- null}
r -t 0.31744 -s 1 -d 2 -p tcp -e 1040 -c 0 -i 17 -a 0 -x {0.0 2.0 10 ------- null}
+ -t 0.31744 -s 2 -d 1 -p ack -e 40 -c 0 -i 27 -a 0 -x {2.0 0.0 10 ------- null}
- -t 0.31744 -s 2 -d 1 -p ack -e 40 -c 0 -i 27 -a 0 -x {2.0 0.0 10 ------- null}
h -t 0.31744 -s 2 -d 1 -p ack -e 40 -c 0 -i 27 -a 0 -x {2.0 0.0 -1 ------- null}
r -t 0.31944 -s 2 -d 1 -p ack -e 40 -c 0 -i 24 -a 0 -x {2.0 0.0 9 ------- null}
+ -t 0.31944 -s 1 -d 0 -p ack -e 40 -c 0 -i 24 -a 0 -x {2.0 0.0 9 ------- null}
- -t 0.31944 -s 1 -d 0 -p ack -e 40 -c 0 -i 24 -a 0 -x {2.0 0.0 9 ------- null}
h -t 0.31944 -s 1 -d 0 -p ack -e 40 -c 0 -i 24 -a 0 -x {2.0 0.0 -1 ------- null}
r -t 0.32144 -s 1 -d 0 -p ack -e 40 -c 0 -i 23 -a 0 -x {2.0 0.0 8 ------- null}
+ -t 0.32144 -s 0 -d 1 -p tcp -e 1040 -c 0 -i 28 -a 0 -x {0.0 2.0 17 ------- null}
+ -t 0.32144 -s 0 -d 1 -p tcp -e 1040 -c 0 -i 29 -a 0 -x {0.0 2.0 18 ------- null}
- -t 0.3224 -s 0 -d 1 -p tcp -e 1040 -c 0 -i 25 -a 0 -x {0.0 2.0 15 ------- null}
h -t 0.3224 -s 0 -d 1 -p tcp -e 1040 -c 0 -i 25 -a 0 -x {0.0 2.0 -1 ------- null}
r -t 0.32408 -s 0 -d 1 -p tcp -e 1040 -c 0 -i 20 -a 0 -x {0.0 2.0 13 ------- null}
+ -t 0.32408 -s 1 -d 2 -p tcp -e 1040 -c 0 -i 20 -a 0 -x {0.0 2.0 13 ------- null}
- -t 0.32408 -s 1 -d 2 -p tcp -e 1040 -c 0 -i 20 -a 0 -x {0.0 2.0 13 ------- null}
h -t 0.32408 -s 1 -d 2 -p tcp -e 1040 -c 0 -i 20 -a 0 -x {0.0 2.0 -1 ------- null}
r -t 0.32576 -s 1 -d 2 -p tcp -e 1040 -c 0 -i 18 -a 0 -x {0.0 2.0 11 ------- null}
+ -t 0.32576 -s 2 -d 1 -p ack -e 40 -c 0 -i 30 -a 0 -x {2.0 0.0 11 ------- null}
- -t 0.32576 -s 2 -d 1 -p ack -e 40 -c 0 -i 30 -a 0 -x {2.0 0.0 11 ------- null}
h -t 0.32576 -s 2 -d 1 -p ack -e 40 -c 0 -i 30 -a 0 -x {2.0 0.0 -1 ------- null}
r -t 0.32776 -s 2 -d 1 -p ack -e 40 -c 0 -i 27 -a 0 -x {2.0 0.0 10 ------- null}
+ -t 0.32776 -s 1 -d 0 -p ack -e 40 -c 0 -i 27 -a 0 -x {2.0 0.0 10 ------- null}
- -t 0.32776 -s 1 -d 0 -p ack -e 40 -c 0 -i 27 -a 0 -x {2.0 0.0 10 ------- null}
h -t 0.32776 -s 1 -d 0 -p ack -e 40 -c 0 -i 27 -a 0 -x {2.0 0.0 -1 ------- null}
r -t 0.32976 -s 1 -d 0 -p ack -e 40 -c 0 -i 24 -a 0 -x {2.0 0.0 9 ------- null}
+ -t 0.32976 -s 0 -d 1 -p tcp -e 1040 -c 0 -i 31 -a 0 -x {0.0 2.0 19 ------- null}
+ -t 0.32976 -s 0 -d 1 -p tcp -e 1040 -c 0 -i 32 -a 0 -x {0.0 2.0 20 ------- null}
- -t 0.33072 -s 0 -d 1 -p tcp -e 1040 -c 0 -i 26 -a 0 -x {0.0 2.0 16 ------- null}
h -t 0.33072 -s 0 -d 1 -p tcp -e 1040 -c 0 -i 26 -a 0 -x {0.0 2.0 -1 ------- null}
r -t 0.3324 -s 0 -d 1 -p tcp -e 1040 -c 0 -i 21 -a 0 -x {0.0 2.0 14 ------- null}
+ -t 0.3324 -s 1 -d 2 -p tcp -e 1040 -c 0 -i 21 -a 0 -x {0.0 2.0 14 ------- null}
- -t 0.3324 -s 1 -d 2 -p tcp -e 1040 -c 0 -i 21 -a 0 -x {0.0 2.0 14 ------- null}
h -t 0.3324 -s 1 -d 2 -p tcp -e 1040 -c 0 -i 21 -a 0 -x {0.0 2.0 -1 ------- null}
r -t 0.33408 -s 1 -d 2 -p tcp -e 1040 -c 0 -i 19 -a 0 -x {0.0 2.0 12 ------- null}
+ -t 0.33408 -s 2 -d 1 -p ack -e 40 -c 0 -i 33 -a 0 -x {2.0 0.0 12 ------- null}
- -t 0.33408 -s 2 -d 1 -p ack -e 40 -c 0 -i 33 -a 0 -x {2.0 0.0 12 ------- null}
h -t 0.33408 -s 2 -d 1 -p ack -e 40 -c 0 -i 33 -a 0 -x {2.0 0.0 -1 ------- null}
r -t 0.33608 -s 2 -d 1 -p ack -e 40 -c 0 -i 30 -a 0 -x {2.0 0.0 11 ------- null}
+ -t 0.33608 -s 1 -d 0 -p ack -e 40 -c 0 -i 30 -a 0 -x {2.0 0.0 11 ------- null}
- -t 0.33608 -s 1 -d 0 -p ack -e 40 -c 0 -i 30 -a 0 -x {2.0 0.0 11 ------- null}
h -t 0.33608 -s 1 -d 0 -p ack -e 40 -c 0 -i 30 -a 0 -x {2.0 0.0 -1 ------- null}
r -t 0.33808 -s 1 -d 0 -p ack -e 40 -c 0 -i 27 -a 0 -x {2.0 0.0 10 ------- null}
+ -t 0.33808 -s 0 -d 1 -p tcp -e 1040 -c 0 -i 34 -a 0 -x {0.0 2.0 21 ------- null}
+ -t 0.33808 -s 0 -d 1 -p tcp -e 1040 -c 0 -i 35 -a 0 -x {0.0 2.0 22 ------- null}
- -t 0.33904 -s 0 -d 1 -p tcp -e 1040 -c 0 -i 28 -a 0 -x {0.0 2.0 17 ------- null}
h -t 0.33904 -s 0 -d 1 -p tcp -e 1040 -c 0 -i 28 -a 0 -x {0.0 2.0 -1 ------- null}
r -t 0.34072 -s 0 -d 1 -p tcp -e 1040 -c 0 -i 25 -a 0 -x {0.0 2.0 15 ------- null}
+ -t 0.34072 -s 1 -d 2 -p tcp -e 1040 -c 0 -i 25 -a 0 -x {0.0 2.0 15 ------- null}
- -t 0.34072 -s 1 -d 2 -p tcp -e 1040 -c 0 -i 25 -a 0 -x {0.0 2.0 15 ------- null}
h -t 0.34072 -s 1 -d 2 -p tcp -e 1040 -c 0 -i 25 -a 0 -x {0.0 2.0 -1 ------- null}
r -t 0.3424 -s 1 -d 2 -p tcp -e 1040 -c 0 -i 20 -a 0 -x {0.0 2.0 13 ------- null}
+ -t 0.3424 -s 2 -d 1 -p ack -e 40 -c 0 -i 36 -a 0 -x {2.0 0.0 13 ------- null}
- -t 0.3424 -s 2 -d 1 -p ack -e 40 -c 0 -i 36 -a 0 -x {2.0 0.0 13 ------- null}
h -t 0.3424 -s 2 -d 1 -p ack -e 40 -c 0 -i 36 -a 0 -x {2.0 0.0 -1 ------- null}
r -t 0.3444 -s 2 -d 1 -p ack -e 40 -c 0 -i 33 -a 0 -x {2.0 0.0 12 ------- null}
+ -t 0.3444 -s 1 -d 0 -p ack -e 40 -c 0 -i 33 -a 0 -x {2.0 0.0 12 ------- null}
- -t 0.3444 -s 1 -d 0 -p ack -e 40 -c 0 -i 33 -a 0 -x {2.0 0.0 12 ------- null}
h -t 0.3444 -s 1 -d 0 -p ack -e 40 -c 0 -i 33 -a 0 -x {2.0 0.0 -1 ------- null}
r -t 0.3464 -s 1 -d 0 -p ack -e 40 -c 0 -i 30 -a 0 -x {2.0 0.0 11 ------- null}
+ -t 0.3464 -s 0 -d 1 -p tcp -e 1040 -c 0 -i 37 -a 0 -x {0.0 2.0 23 ------- null}
+ -t 0.3464 -s 0 -d 1 -p tcp -e 1040 -c 0 -i 38 -a 0 -x {0.0 2.0 24 ------- null}
- -t 0.34736 -s 0 -d 1 -p tcp -e 1040 -c 0 -i 29 -a 0 -x {0.0 2.0 18 ------- null}
h -t 0.34736 -s 0 -d 1 -p tcp -e 1040 -c 0 -i 29 -a 0 -x {0.0 2.0 -1 ------- null}
r -t 0.34904 -s 0 -d 1 -p tcp -e 1040 -c 0 -i 26 -a 0 -x {0.0 2.0 16 ------- null}
+ -t 0.34904 -s 1 -d 2 -p tcp -e 1040 -c 0 -i 26 -a 0 -x {0.0 2.0 16 ------- null}
- -t 0.34904 -s 1 -d 2 -p tcp -e 1040 -c 0 -i 26 -a 0 -x {0.0 2.0 16 ------- null}
h -t 0.34904 -s 1 -d 2 -p tcp -e 1040 -c 0 -i 26 -a 0 -x {0.0 2.0 -1 ------- null}
r -t 0.35072 -s 1 -d 2 -p tcp -e 1040 -c 0 -i 21 -a 0 -x {0.0 2.0 14 ------- null}
+ -t 0.35072 -s 2 -d 1 -p ack -e 40 -c 0 -i 39 -a 0 -x {2.0 0.0 14 ------- null}
- -t 0.35072 -s 2 -d 1 -p ack -e 40 -c 0 -i 39 -a 0 -x {2.0 0.0 14 ------- null}
h -t 0.35072 -s 2 -d 1 -p ack -e 40 -c 0 -i 39 -a 0 -x {2.0 0.0 -1 ------- null}
r -t 0.35272 -s 2 -d 1 -p ack -e 40 -c 0 -i 36 -a 0 -x {2.0 0.0 13 ------- null}
+ -t 0.35272 -s 1 -d 0 -p ack -e 40 -c 0 -i 36 -a 0 -x {2.0 0.0 13 ------- null}
- -t 0.35272 -s 1 -d 0 -p ack -e 40 -c 0 -i 36 -a 0 -x {2.0 0.0 13 ------- null}
h -t 0.35272 -s 1 -d 0 -p ack -e 40 -c 0 -i 36 -a 0 -x {2.0 0.0 -1 ------- null}
r -t 0.35472 -s 1 -d 0 -p ack -e 40 -c 0 -i 33 -a 0 -x {2.0 0.0 12 ------- null}
+ -t 0.35472 -s 0 -d 1 -p tcp -e 1040 -c 0 -i 40 -a 0 -x {0.0 2.0 25 ------- null}
+ -t 0.35472 -s 0 -d 1 -p tcp -e 1040 -c 0 -i 41 -a 0 -x {0.0 2.0 26 ------- null}
- -t 0.35568 -s 0 -d 1 -p tcp -e 1040 -c 0 -i 31 -a 0 -x {0.0 2.0 19 ------- null}
h -t 0.35568 -s 0 -d 1 -p tcp -e 1040 -c 0 -i 31 -a 0 -x {0.0 2.0 -1 ------- null}
r -t 0.35736 -s 0 -d 1 -p tcp -e 1040 -c 0 -i 28 -a 0 -x {0.0 2.0 17 ------- null}
+ -t 0.35736 -s 1 -d 2 -p tcp -e 1040 -c 0 -i 28 -a 0 -x {0.0 2.0 17 ------- null}
- -t 0.35736 -s 1 -d 2 -p tcp -e 1040 -c 0 -i 28 -a 0 -x {0.0 2.0 17 ------- null}
h -t 0.35736 -s 1 -d 2 -p tcp -e 1040 -c 0 -i 28 -a 0 -x {0.0 2.0 -1 ------- null}
r -t 0.35904 -s 1 -d 2 -p tcp -e 1040 -c 0 -i 25 -a 0 -x {0.0 2.0 15 ------- null}
+ -t 0.35904 -s 2 -d 1 -p ack -e 40 -c 0 -i 42 -a 0 -x {2.0 0.0 15 ------- null}
- -t 0.35904 -s 2 -d 1 -p ack -e 40 -c 0 -i 42 -a 0 -x {2.0 0.0 15 ------- null}
h -t 0.35904 -s 2 -d 1 -p ack -e 40 -c 0 -i 42 -a 0 -x {2.0 0.0 -1 ------- null}
r -t 0.36104 -s 2 -d 1 -p ack -e 40 -c 0 -i 39 -a 0 -x {2.0 0.0 14 ------- null}
+ -t 0.36104 -s 1 -d 0 -p ack -e 40 -c 0 -i 39 -a 0 -x {2.0 0.0 14 ------- null}
- -t 0.36104 -s 1 -d 0 -p ack -e 40 -c 0 -i 39 -a 0 -x {2.0 0.0 14 ------- null}
h -t 0.36104 -s 1 -d 0 -p ack -e 40 -c 0 -i 39 -a 0 -x {2.0 0.0 -1 ------- null}
r -t 0.36304 -s 1 -d 0 -p ack -e 40 -c 0 -i 36 -a 0 -x {2.0 0.0 13 ------- null}
+ -t 0.36304 -s 0 -d 1 -p tcp -e 1040 -c 0 -i 43 -a 0 -x {0.0 2.0 27 ------- null}
+ -t 0.36304 -s 0 -d 1 -p tcp -e 1040 -c 0 -i 44 -a 0 -x {0.0 2.0 28 ------- null}
- -t 0.364 -s 0 -d 1 -p tcp -e 1040 -c 0 -i 32 -a 0 -x {0.0 2.0 20 ------- null}
h -t 0.364 -s 0 -d 1 -p tcp -e 1040 -c 0 -i 32 -a 0 -x {0.0 2.0 -1 ------- null}
r -t 0.36568 -s 0 -d 1 -p tcp -e 1040 -c 0 -i 29 -a 0 -x {0.0 2.0 18 ------- null}
+ -t 0.36568 -s 1 -d 2 -p tcp -e 1040 -c 0 -i 29 -a 0 -x {0.0 2.0 18 ------- null}
- -t 0.36568 -s 1 -d 2 -p tcp -e 1040 -c 0 -i 29 -a 0 -x {0.0 2.0 18 ------- null}
h -t 0.36568 -s 1 -d 2 -p tcp -e 1040 -c 0 -i 29 -a 0 -x {0.0 2.0 -1 ------- null}
r -t 0.36736 -s 1 -d 2 -p tcp -e 1040 -c 0 -i 26 -a 0 -x {0.0 2.0 16 ------- null}
+ -t 0.36736 -s 2 -d 1 -p ack -e 40 -c 0 -i 45 -a 0 -x {2.0 0.0 16 ------- null}
- -t 0.36736 -s 2 -d 1 -p ack -e 40 -c 0 -i 45 -a 0 -x {2.0 0.0 16 ------- null}
h -t 0.36736 -s 2 -d 1 -p ack -e 40 -c 0 -i 45 -a 0 -x {2.0 0.0 -1 ------- null}
r -t 0.36936 -s 2 -d 1 -p ack -e 40 -c 0 -i 42 -a 0 -x {2.0 0.0 15 ------- null}
+ -t 0.36936 -s 1 -d 0 -p ack -e 40 -c 0 -i 42 -a 0 -x {2.0 0.0 15 ------- null}
- -t 0.36936 -s 1 -d 0 -p ack -e 40 -c 0 -i 42 -a 0 -x {2.0 0.0 15 ------- null}
h -t 0.36936 -s 1 -d 0 -p ack -e 40 -c 0 -i 42 -a 0 -x {2.0 0.0 -1 ------- null}
r -t 0.37136 -s 1 -d 0 -p ack -e 40 -c 0 -i 39 -a 0 -x {2.0 0.0 14 ------- null}
+ -t 0.37136 -s 0 -d 1 -p tcp -e 1040 -c 0 -i 46 -a 0 -x {0.0 2.0 29 ------- null}
+ -t 0.37136 -s 0 -d 1 -p tcp -e 1040 -c 0 -i 47 -a 0 -x {0.0 2.0 30 ------- null}
d -t 0.37136 -s 0 -d 1 -p tcp -e 1040 -c 0 -i 47 -a 0 -x {0.0 2.0 30 ------- null}
- -t 0.37232 -s 0 -d 1 -p tcp -e 1040 -c 0 -i 34 -a 0 -x {0.0 2.0 21 ------- null}
h -t 0.37232 -s 0 -d 1 -p tcp -e 1040 -c 0 -i 34 -a 0 -x {0.0 2.0 -1 ------- null}
r -t 0.374 -s 0 -d 1 -p tcp -e 1040 -c 0 -i 31 -a 0 -x {0.0 2.0 19 ------- null}
+ -t 0.374 -s 1 -d 2 -p tcp -e 1040 -c 0 -i 31 -a 0 -x {0.0 2.0 19 ------- null}
- -t 0.374 -s 1 -d 2 -p tcp -e 1040 -c 0 -i 31 -a 0 -x {0.0 2.0 19 ------- null}
h -t 0.374 -s 1 -d 2 -p tcp -e 1040 -c 0 -i 31 -a 0 -x {0.0 2.0 -1 ------- null}
r -t 0.37568 -s 1 -d 2 -p tcp -e 1040 -c 0 -i 28 -a 0 -x {0.0 2.0 17 ------- null}
+ -t 0.37568 -s 2 -d 1 -p ack -e 40 -c 0 -i 48 -a 0 -x {2.0 0.0 17 ------- null}
- -t 0.37568 -s 2 -d 1 -p ack -e 40 -c 0 -i 48 -a 0 -x {2.0 0.0 17 ------- null}
h -t 0.37568 -s 2 -d 1 -p ack -e 40 -c 0 -i 48 -a 0 -x {2.0 0.0 -1 ------- null}
r -t 0.37768 -s 2 -d 1 -p ack -e 40 -c 0 -i 45 -a 0 -x {2.0 0.0 16 ------- null}
+ -t 0.37768 -s 1 -d 0 -p ack -e 40 -c 0 -i 45 -a 0 -x {2.0 0.0 16 ------- null}
- -t 0.37768 -s 1 -d 0 -p ack -e 40 -c 0 -i 45 -a 0 -x {2.0 0.0 16 ------- null}
h -t 0.37768 -s 1 -d 0 -p ack -e 40 -c 0 -i 45 -a 0 -x {2.0 0.0 -1 ------- null}
r -t 0.37968 -s 1 -d 0 -p ack -e 40 -c 0 -i 42 -a 0 -x {2.0 0.0 15 ------- null}
+ -t 0.37968 -s 0 -d 1 -p tcp -e 1040 -c 0 -i 49 -a 0 -x {0.0 2.0 31 ------- null}
+ -t 0.37968 -s 0 -d 1 -p tcp -e 1040 -c 0 -i 50 -a 0 -x {0.0 2.0 32 ------- null}
d -t 0.37968 -s 0 -d 1 -p tcp -e 1040 -c 0 -i 50 -a 0 -x {0.0 2.0 32 ------- null}
- -t 0.38064 -s 0 -d 1 -p tcp -e 1040 -c 0 -i 35 -a 0 -x {0.0 2.0 22 ------- null}
h -t 0.38064 -s 0 -d 1 -p tcp -e 1040 -c 0 -i 35 -a 0 -x {0.0 2.0 -1 ------- null}
r -t 0.38232 -s 0 -d 1 -p tcp -e 1040 -c 0 -i 32 -a 0 -x {0.0 2.0 20 ------- null}
+ -t 0.38232 -s 1 -d 2 -p tcp -e 1040 -c 0 -i 32 -a 0 -x {0.0 2.0 20 ------- null}
- -t 0.38232 -s 1 -d 2 -p tcp -e 1040 -c 0 -i 32 -a 0 -x {0.0 2.0 20 ------- null}
h -t 0.38232 -s 1 -d 2 -p tcp -e 1040 -c 0 -i 32 -a 0 -x {0.0 2.0 -1 ------- null}
r -t 0.384 -s 1 -d 2 -p tcp -e 1040 -c 0 -i 29 -a 0 -x {0.0 2.0 18 ------- null}
+ -t 0.384 -s 2 -d 1 -p ack -e 40 -c 0 -i 51 -a 0 -x {2.0 0.0 18 ------- null}
- -t 0.384 -s 2 -d 1 -p ack -e 40 -c 0 -i 51 -a 0 -x {2.0 0.0 18 ------- null}
h -t 0.384 -s 2 -d 1 -p ack -e 40 -c 0 -i 51 -a 0 -x {2.0 0.0 -1 ------- null}
r -t 0.386 -s 2 -d 1 -p ack -e 40 -c 0 -i 48 -a 0 -x {2.0 0.0 17 ------- null}
+ -t 0.386 -s 1 -d 0 -p ack -e 40 -c 0 -i 48 -a 0 -x {2.0 0.0 17 ------- null}
- -t 0.386 -s 1 -d 0 -p ack -e 40 -c 0 -i 48 -a 0 -x {2.0 0.0 17 ------- null}
h -t 0.386 -s 1 -d 0 -p ack -e 40 -c 0 -i 48 -a 0 -x {2.0 0.0 -1 ------- null}
r -t 0.388 -s 1 -d 0 -p ack -e 40 -c 0 -i 45 -a 0 -x {2.0 0.0 16 ------- null}
+ -t 0.388 -s 0 -d 1 -p tcp -e 1040 -c 0 -i 52 -a 0 -x {0.0 2.0 33 ------- null}
+ -t 0.388 -s 0 -d 1 -p tcp -e 1040 -c 0 -i 53 -a 0 -x {0.0 2.0 34 ------- null}
d -t 0.388 -s 0 -d 1 -p tcp -e 1040 -c 0 -i 53 -a 0 -x {0.0 2.0 34 ------- null}
- -t 0.38896 -s 0 -d 1 -p tcp -e 1040 -c 0 -i 37 -a 0 -x {0.0 2.0 23 ------- null}
h -t 0.38896 -s 0 -d 1 -p tcp -e 1040 -c 0 -i 37 -a 0 -x {0.0 2.0 -1 ------- null}
r -t 0.39064 -s 0 -d 1 -p tcp -e 1040 -c 0 -i 34 -a 0 -x {0.0 2.0 21 ------- null}
+ -t 0.39064 -s 1 -d 2 -p tcp -e 1040 -c 0 -i 34 -a 0 -x {0.0 2.0 21 ------- null}
- -t 0.39064 -s 1 -d 2 -p tcp -e 1040 -c 0 -i 34 -a 0 -x {0.0 2.0 21 ------- null}
h -t 0.39064 -s 1 -d 2 -p tcp -e 1040 -c 0 -i 34 -a 0 -x {0.0 2.0 -1 ------- null}
r -t 0.39232 -s 1 -d 2 -p tcp -e 1040 -c 0 -i 31 -a 0 -x {0.0 2.0 19 ------- null}
+ -t 0.39232 -s 2 -d 1 -p ack -e 40 -c 0 -i 54 -a 0 -x {2.0 0.0 19 ------- null}
- -t 0.39232 -s 2 -d 1 -p ack -e 40 -c 0 -i 54 -a 0 -x {2.0 0.0 19 ------- null}
h -t 0.39232 -s 2 -d 1 -p ack -e 40 -c 0 -i 54 -a 0 -x {2.0 0.0 -1 ------- null}
r -t 0.39432 -s 2 -d 1 -p ack -e 40 -c 0 -i 51 -a 0 -x {2.0 0.0 18 ------- null}
+ -t 0.39432 -s 1 -d 0 -p ack -e 40 -c 0 -i 51 -a 0 -x {2.0 0.0 18 ------- null}
- -t 0.39432 -s 1 -d 0 -p ack -e 40 -c 0 -i 51 -a 0 -x {2.0 0.0 18 ------- null}
h -t 0.39432 -s 1 -d 0 -p ack -e 40 -c 0 -i 51 -a 0 -x {2.0 0.0 -1 ------- null}
r -t 0.39632 -s 1 -d 0 -p ack -e 40 -c 0 -i 48 -a 0 -x {2.0 0.0 17 ------- null}
+ -t 0.39632 -s 0 -d 1 -p tcp -e 1040 -c 0 -i 55 -a 0 -x {0.0 2.0 35 ------- null}
+ -t 0.39632 -s 0 -d 1 -p tcp -e 1040 -c 0 -i 56 -a 0 -x {0.0 2.0 36 ------- null}
d -t 0.39632 -s 0 -d 1 -p tcp -e 1040 -c 0 -i 56 -a 0 -x {0.0 2.0 36 ------- null}
- -t 0.39728 -s 0 -d 1 -p tcp -e 1040 -c 0 -i 38 -a 0 -x {0.0 2.0 24 ------- null}
h -t 0.39728 -s 0 -d 1 -p tcp -e 1040 -c 0 -i 38 -a 0 -x {0.0 2.0 -1 ------- null}
r -t 0.39896 -s 0 -d 1 -p tcp -e 1040 -c 0 -i 35 -a 0 -x {0.0 2.0 22 ------- null}
+ -t 0.39896 -s 1 -d 2 -p tcp -e 1040 -c 0 -i 35 -a 0 -x {0.0 2.0 22 ------- null}
- -t 0.39896 -s 1 -d 2 -p tcp -e 1040 -c 0 -i 35 -a 0 -x {0.0 2.0 22 ------- null}
h -t 0.39896 -s 1 -d 2 -p tcp -e 1040 -c 0 -i 35 -a 0 -x {0.0 2.0 -1 ------- null}
r -t 0.40064 -s 1 -d 2 -p tcp -e 1040 -c 0 -i 32 -a 0 -x {0.0 2.0 20 ------- null}
+ -t 0.40064 -s 2 -d 1 -p ack -e 40 -c 0 -i 57 -a 0 -x {2.0 0.0 20 ------- null}
- -t 0.40064 -s 2 -d 1 -p ack -e 40 -c 0 -i 57 -a 0 -x {2.0 0.0 20 ------- null}
h -t 0.40064 -s 2 -d 1 -p ack -e 40 -c 0 -i 57 -a 0 -x {2.0 0.0 -1 ------- null}
r -t 0.40264 -s 2 -d 1 -p ack -e 40 -c 0 -i 54 -a 0 -x {2.0 0.0 19 ------- null}
+ -t 0.40264 -s 1 -d 0 -p ack -e 40 -c 0 -i 54 -a 0 -x {2.0 0.0 19 ------- null}
- -t 0.40264 -s 1 -d 0 -p ack -e 40 -c 0 -i 54 -a 0 -x {2.0 0.0 19 ------- null}